+ 0.006548 0 1 tcp 40 ------- 0 2.0 3.0 0 0
- 0.006548 0 1 tcp 40 ------- 0 2.0 3.0 0 0
r 0.01058 0 1 tcp 40 ------- 0 2.0 3.0 0 0
+ 0.237781 1 0 ack 40 ------- 0 3.0 2.0 0 1
- 0.237781 1 0 ack 40 ------- 0 3.0 2.0 0 1
r 0.241813 1 0 ack 40 ------- 0 3.0 2.0 0 1
+ 0.331481 0 1 tcp 576 ------- 0 2.0 3.0 1 2
- 0.331481 0 1 tcp 576 ------- 0 2.0 3.0 1 2
r 0.335942 0 1 tcp 576 ------- 0 2.0 3.0 1 2
+ 0.639714 1 0 ack 40 ------- 0 3.0 2.0 1 3
- 0.639714 1 0 ack 40 ------- 0 3.0 2.0 1 3
r 0.643746 1 0 ack 40 ------- 0 3.0 2.0 1 3
+ 0.733414 0 1 tcp 576 ------- 0 2.0 3.0 2 4
- 0.733414 0 1 tcp 576 ------- 0 2.0 3.0 2 4
r 0.737875 0 1 tcp 576 ------- 0 2.0 3.0 2 4
+ 0.8157 0 1 tcp 576 ------- 0 2.0 3.0 3 5
- 0.8157 0 1 tcp 576 ------- 0 2.0 3.0 3 5
r 0.820161 0 1 tcp 576 ------- 0 2.0 3.0 3 5
+ 1.023933 1 0 ack 40 ------- 0 3.0 2.0 3 6
- 1.023933 1 0 ack 40 ------- 0 3.0 2.0 3 6
r 1.027965 1 0 ack 40 ------- 0 3.0 2.0 3 6
+ 1.117633 0 1 tcp 576 ------- 0 2.0 3.0 4 7
- 1.117633 0 1 tcp 576 ------- 0 2.0 3.0 4 7
r 1.122094 0 1 tcp 576 ------- 0 2.0 3.0 4 7
+ 1.199919 0 1 tcp 576 ------- 0 2.0 3.0 5 8
- 1.199919 0 1 tcp 576 ------- 0 2.0 3.0 5 8
r 1.20438 0 1 tcp 576 ------- 0 2.0 3.0 5 8
+ 1.282205 0 1 tcp 576 ------- 0 2.0 3.0 6 9
- 1.282205 0 1 tcp 576 ------- 0 2.0 3.0 6 9
r 1.286665 0 1 tcp 576 ------- 0 2.0 3.0 6 9
+ 1.408152 1 0 ack 40 ------- 0 3.0 2.0 5 10
- 1.408152 1 0 ack 40 ------- 0 3.0 2.0 5 10
r 1.412184 1 0 ack 40 ------- 0 3.0 2.0 5 10
+ 1.501852 0 1 tcp 576 ------- 0 2.0 3.0 7 11
- 1.501852 0 1 tcp 576 ------- 0 2.0 3.0 7 11
r 1.506313 0 1 tcp 576 ------- 0 2.0 3.0 7 11
+ 1.584138 0 1 tcp 576 ------- 0 2.0 3.0 8 12
- 1.584138 0 1 tcp 576 ------- 0 2.0 3.0 8 12
r 1.588599 0 1 tcp 576 ------- 0 2.0 3.0 8 12
+ 1.590438 1 0 ack 40 ------- 0 3.0 2.0 6 14
- 1.590438 1 0 ack 40 ------- 0 3.0 2.0 6 14
r 1.59447 1 0 ack 40 ------- 0 3.0 2.0 6 14
+ 1.666423 0 1 tcp 576 ------- 0 2.0 3.0 9 13
- 1.666423 0 1 tcp 576 ------- 0 2.0 3.0 9 13
r 1.670884 0 1 tcp 576 ------- 0 2.0 3.0 9 13
+ 1.748709 0 1 tcp 576 ------- 0 2.0 3.0 10 15
- 1.748709 0 1 tcp 576 ------- 0 2.0 3.0 10 15
r 1.75317 0 1 tcp 576 ------- 0 2.0 3.0 10 15
+ 1.792371 1 0 ack 40 ------- 0 3.0 2.0 8 16
- 1.792371 1 0 ack 40 ------- 0 3.0 2.0 8 16
r 1.796403 1 0 ack 40 ------- 0 3.0 2.0 8 16
+ 1.956942 1 0 ack 40 ------- 0 3.0 2.0 10 17
- 1.956942 1 0 ack 40 ------- 0 3.0 2.0 10 17
r 1.960974 1 0 ack 40 ------- 0 3.0 2.0 10 17
