V -t * -v 1.0a5 -a 0
A -t * -n 1 -p 0 -o 0x7fffffff -c 30 -a 1
A -t * -h 1 -m 1073741823 -s 0
n -t * -a 0 -s 0 -S UP -v circle -c black -i black
n -t * -a 1 -s 1 -S UP -v circle -c black -i black
n -t * -a 2 -s 2 -S UP -v circle -c black -i black
n -t * -a 3 -s 3 -S UP -v circle -c black -i black
X -t * -n 4 -r 10Mb -D 1ms -o left
L -t * -s 4 -d 0 -o up
L -t * -s 4 -d 1 -o down
L -t * -s 4 -d 2 -o up
L -t * -s 4 -d 3 -o down
h -t 0 -s 0 -d 4 -p cbr -e 210 -c 0 -i 0 -a 0 -x {0.0 1.0 0 ------- null}
h -t 0 -s 2 -d 4 -p cbr -e 210 -c 0 -i 1 -a 0 -x {2.0 3.0 0 ------- null}
+ -t 0.001 -s 0 -d 4 -p cbr -e 210 -c 0 -i 0 -a 0 -x {0.0 1.0 0 ------- null}
- -t 0.001 -s 0 -d 4 -p cbr -e 210 -c 0 -i 0 -a 0 -x {0.0 1.0 0 ------- null}
h -t 0.001 -s 0 -d 4 -p cbr -e 210 -c 0 -i 0 -a 0 -x {0.0 1.0 -1 ------- null}
+ -t 0.001 -s 2 -d 4 -p cbr -e 210 -c 0 -i 1 -a 0 -x {2.0 3.0 0 ------- null}
- -t 0.001 -s 2 -d 4 -p cbr -e 210 -c 0 -i 1 -a 0 -x {2.0 3.0 0 ------- null}
h -t 0.001 -s 2 -d 4 -p cbr -e 210 -c 0 -i 1 -a 0 -x {2.0 3.0 -1 ------- null}
r -t 0.0022 -s 4 -d 3 -p cbr -e 210 -c 0 -i 1 -a 0 -x {2.0 3.0 0 ------- null}
r -t 0.0023928 -s 4 -d 1 -p cbr -e 210 -c 0 -i 0 -a 0 -x {0.0 1.0 0 ------- null}
h -t 0.2 -s 0 -d 4 -p cbr -e 210 -c 0 -i 2 -a 0 -x {0.0 1.0 1 ------- null}
h -t 0.2 -s 2 -d 4 -p cbr -e 210 -c 0 -i 3 -a 0 -x {2.0 3.0 1 ------- null}
+ -t 0.201 -s 0 -d 4 -p cbr -e 210 -c 0 -i 2 -a 0 -x {0.0 1.0 1 ------- null}
- -t 0.201 -s 0 -d 4 -p cbr -e 210 -c 0 -i 2 -a 0 -x {0.0 1.0 1 ------- null}
h -t 0.201 -s 0 -d 4 -p cbr -e 210 -c 0 -i 2 -a 0 -x {0.0 1.0 -1 ------- null}
+ -t 0.201 -s 2 -d 4 -p cbr -e 210 -c 0 -i 3 -a 0 -x {2.0 3.0 1 ------- null}
- -t 0.201 -s 2 -d 4 -p cbr -e 210 -c 0 -i 3 -a 0 -x {2.0 3.0 1 ------- null}
h -t 0.201 -s 2 -d 4 -p cbr -e 210 -c 0 -i 3 -a 0 -x {2.0 3.0 -1 ------- null}
r -t 0.2022 -s 4 -d 3 -p cbr -e 210 -c 0 -i 3 -a 0 -x {2.0 3.0 1 ------- null}
r -t 0.2023928 -s 4 -d 1 -p cbr -e 210 -c 0 -i 2 -a 0 -x {0.0 1.0 1 ------- null}
h -t 0.4 -s 0 -d 4 -p cbr -e 210 -c 0 -i 4 -a 0 -x {0.0 1.0 2 ------- null}
h -t 0.4 -s 2 -d 4 -p cbr -e 210 -c 0 -i 5 -a 0 -x {2.0 3.0 2 ------- null}
+ -t 0.401 -s 0 -d 4 -p cbr -e 210 -c 0 -i 4 -a 0 -x {0.0 1.0 2 ------- null}
- -t 0.401 -s 0 -d 4 -p cbr -e 210 -c 0 -i 4 -a 0 -x {0.0 1.0 2 ------- null}
h -t 0.401 -s 0 -d 4 -p cbr -e 210 -c 0 -i 4 -a 0 -x {0.0 1.0 -1 ------- null}
+ -t 0.401 -s 2 -d 4 -p cbr -e 210 -c 0 -i 5 -a 0 -x {2.0 3.0 2 ------- null}
- -t 0.401 -s 2 -d 4 -p cbr -e 210 -c 0 -i 5 -a 0 -x {2.0 3.0 2 ------- null}
h -t 0.401 -s 2 -d 4 -p cbr -e 210 -c 0 -i 5 -a 0 -x {2.0 3.0 -1 ------- null}
r -t 0.4022 -s 4 -d 1 -p cbr -e 210 -c 0 -i 4 -a 0 -x {0.0 1.0 2 ------- null}
r -t 0.4023928 -s 4 -d 3 -p cbr -e 210 -c 0 -i 5 -a 0 -x {2.0 3.0 2 ------- null}
h -t 0.6 -s 0 -d 4 -p cbr -e 210 -c 0 -i 6 -a 0 -x {0.0 1.0 3 ------- null}
h -t 0.6 -s 2 -d 4 -p cbr -e 210 -c 0 -i 7 -a 0 -x {2.0 3.0 3 ------- null}
+ -t 0.601 -s 0 -d 4 -p cbr -e 210 -c 0 -i 6 -a 0 -x {0.0 1.0 3 ------- null}
- -t 0.601 -s 0 -d 4 -p cbr -e 210 -c 0 -i 6 -a 0 -x {0.0 1.0 3 ------- null}
h -t 0.601 -s 0 -d 4 -p cbr -e 210 -c 0 -i 6 -a 0 -x {0.0 1.0 -1 ------- null}
+ -t 0.601 -s 2 -d 4 -p cbr -e 210 -c 0 -i 7 -a 0 -x {2.0 3.0 3 ------- null}
- -t 0.601 -s 2 -d 4 -p cbr -e 210 -c 0 -i 7 -a 0 -x {2.0 3.0 3 ------- null}
h -t 0.601 -s 2 -d 4 -p cbr -e 210 -c 0 -i 7 -a 0 -x {2.0 3.0 -1 ------- null}
r -t 0.602268 -s 4 -d 3 -p cbr -e 210 -c 0 -i 7 -a 0 -x {2.0 3.0 3 ------- null}
r -t 0.6024608 -s 4 -d 1 -p cbr -e 210 -c 0 -i 6 -a 0 -x {0.0 1.0 3 ------- null}
h -t 0.8 -s 0 -d 4 -p cbr -e 210 -c 0 -i 8 -a 0 -x {0.0 1.0 4 ------- null}
h -t 0.8 -s 2 -d 4 -p cbr -e 210 -c 0 -i 9 -a 0 -x {2.0 3.0 4 ------- null}
+ -t 0.801 -s 0 -d 4 -p cbr -e 210 -c 0 -i 8 -a 0 -x {0.0 1.0 4 ------- null}
- -t 0.801 -s 0 -d 4 -p cbr -e 210 -c 0 -i 8 -a 0 -x {0.0 1.0 4 ------- null}
h -t 0.801 -s 0 -d 4 -p cbr -e 210 -c 0 -i 8 -a 0 -x {0.0 1.0 -1 ------- null}
+ -t 0.801 -s 2 -d 4 -p cbr -e 210 -c 0 -i 9 -a 0 -x {2.0 3.0 4 ------- null}
- -t 0.801 -s 2 -d 4 -p cbr -e 210 -c 0 -i 9 -a 0 -x {2.0 3.0 4 ------- null}
h -t 0.801 -s 2 -d 4 -p cbr -e 210 -c 0 -i 9 -a 0 -x {2.0 3.0 -1 ------- null}
r -t 0.8022 -s 4 -d 3 -p cbr -e 210 -c 0 -i 9 -a 0 -x {2.0 3.0 4 ------- null}
r -t 0.8023928 -s 4 -d 1 -p cbr -e 210 -c 0 -i 8 -a 0 -x {0.0 1.0 4 ------- null}
h -t 1 -s 0 -d 4 -p cbr -e 210 -c 0 -i 10 -a 0 -x {0.0 1.0 5 ------- null}
h -t 1 -s 2 -d 4 -p cbr -e 210 -c 0 -i 11 -a 0 -x {2.0 3.0 5 ------- null}
+ -t 1.001 -s 0 -d 4 -p cbr -e 210 -c 0 -i 10 -a 0 -x {0.0 1.0 5 ------- null}
- -t 1.001 -s 0 -d 4 -p cbr -e 210 -c 0 -i 10 -a 0 -x {0.0 1.0 5 ------- null}
h -t 1.001 -s 0 -d 4 -p cbr -e 210 -c 0 -i 10 -a 0 -x {0.0 1.0 -1 ------- null}
+ -t 1.001 -s 2 -d 4 -p cbr -e 210 -c 0 -i 11 -a 0 -x {2.0 3.0 5 ------- null}
- -t 1.001 -s 2 -d 4 -p cbr -e 210 -c 0 -i 11 -a 0 -x {2.0 3.0 5 ------- null}
h -t 1.001 -s 2 -d 4 -p cbr -e 210 -c 0 -i 11 -a 0 -x {2.0 3.0 -1 ------- null}
r -t 1.0022168 -s 4 -d 3 -p cbr -e 210 -c 0 -i 11 -a 0 -x {2.0 3.0 5 ------- null}
r -t 1.0024096 -s 4 -d 1 -p cbr -e 210 -c 0 -i 10 -a 0 -x {0.0 1.0 5 ------- null}
h -t 1.2 -s 0 -d 4 -p cbr -e 210 -c 0 -i 12 -a 0 -x {0.0 1.0 6 ------- null}
h -t 1.2 -s 2 -d 4 -p cbr -e 210 -c 0 -i 13 -a 0 -x {2.0 3.0 6 ------- null}
+ -t 1.201 -s 0 -d 4 -p cbr -e 210 -c 0 -i 12 -a 0 -x {0.0 1.0 6 ------- null}
- -t 1.201 -s 0 -d 4 -p cbr -e 210 -c 0 -i 12 -a 0 -x {0.0 1.0 6 ------- null}
h -t 1.201 -s 0 -d 4 -p cbr -e 210 -c 0 -i 12 -a 0 -x {0.0 1.0 -1 ------- null}
+ -t 1.201 -s 2 -d 4 -p cbr -e 210 -c 0 -i 13 -a 0 -x {2.0 3.0 6 ------- null}
- -t 1.201 -s 2 -d 4 -p cbr -e 210 -c 0 -i 13 -a 0 -x {2.0 3.0 6 ------- null}
h -t 1.201 -s 2 -d 4 -p cbr -e 210 -c 0 -i 13 -a 0 -x {2.0 3.0 -1 ------- null}
r -t 1.202268 -s 4 -d 1 -p cbr -e 210 -c 0 -i 12 -a 0 -x {0.0 1.0 6 ------- null}
r -t 1.2024608 -s 4 -d 3 -p cbr -e 210 -c 0 -i 13 -a 0 -x {2.0 3.0 6 ------- null}
h -t 1.4 -s 0 -d 4 -p cbr -e 210 -c 0 -i 14 -a 0 -x {0.0 1.0 7 ------- null}
h -t 1.4 -s 2 -d 4 -p cbr -e 210 -c 0 -i 15 -a 0 -x {2.0 3.0 7 ------- null}
+ -t 1.401 -s 0 -d 4 -p cbr -e 210 -c 0 -i 14 -a 0 -x {0.0 1.0 7 ------- null}
- -t 1.401 -s 0 -d 4 -p cbr -e 210 -c 0 -i 14 -a 0 -x {0.0 1.0 7 ------- null}
h -t 1.401 -s 0 -d 4 -p cbr -e 210 -c 0 -i 14 -a 0 -x {0.0 1.0 -1 ------- null}
+ -t 1.401 -s 2 -d 4 -p cbr -e 210 -c 0 -i 15 -a 0 -x {2.0 3.0 7 ------- null}
- -t 1.401 -s 2 -d 4 -p cbr -e 210 -c 0 -i 15 -a 0 -x {2.0 3.0 7 ------- null}
h -t 1.401 -s 2 -d 4 -p cbr -e 210 -c 0 -i 15 -a 0 -x {2.0 3.0 -1 ------- null}
r -t 1.4022 -s 4 -d 3 -p cbr -e 210 -c 0 -i 15 -a 0 -x {2.0 3.0 7 ------- null}
r -t 1.4023928 -s 4 -d 1 -p cbr -e 210 -c 0 -i 14 -a 0 -x {0.0 1.0 7 ------- null}
h -t 1.6 -s 0 -d 4 -p cbr -e 210 -c 0 -i 16 -a 0 -x {0.0 1.0 8 ------- null}
h -t 1.6 -s 2 -d 4 -p cbr -e 210 -c 0 -i 17 -a 0 -x {2.0 3.0 8 ------- null}
+ -t 1.601 -s 0 -d 4 -p cbr -e 210 -c 0 -i 16 -a 0 -x {0.0 1.0 8 ------- null}
- -t 1.601 -s 0 -d 4 -p cbr -e 210 -c 0 -i 16 -a 0 -x {0.0 1.0 8 ------- null}
h -t 1.601 -s 0 -d 4 -p cbr -e 210 -c 0 -i 16 -a 0 -x {0.0 1.0 -1 ------- null}
+ -t 1.601 -s 2 -d 4 -p cbr -e 210 -c 0 -i 17 -a 0 -x {2.0 3.0 8 ------- null}
- -t 1.601 -s 2 -d 4 -p cbr -e 210 -c 0 -i 17 -a 0 -x {2.0 3.0 8 ------- null}
h -t 1.601 -s 2 -d 4 -p cbr -e 210 -c 0 -i 17 -a 0 -x {2.0 3.0 -1 ------- null}
r -t 1.6022 -s 4 -d 1 -p cbr -e 210 -c 0 -i 16 -a 0 -x {0.0 1.0 8 ------- null}
r -t 1.6023928 -s 4 -d 3 -p cbr -e 210 -c 0 -i 17 -a 0 -x {2.0 3.0 8 ------- null}
h -t 1.8 -s 0 -d 4 -p cbr -e 210 -c 0 -i 18 -a 0 -x {0.0 1.0 9 ------- null}
h -t 1.8 -s 2 -d 4 -p cbr -e 210 -c 0 -i 19 -a 0 -x {2.0 3.0 9 ------- null}
+ -t 1.801 -s 0 -d 4 -p cbr -e 210 -c 0 -i 18 -a 0 -x {0.0 1.0 9 ------- null}
- -t 1.801 -s 0 -d 4 -p cbr -e 210 -c 0 -i 18 -a 0 -x {0.0 1.0 9 ------- null}
h -t 1.801 -s 0 -d 4 -p cbr -e 210 -c 0 -i 18 -a 0 -x {0.0 1.0 -1 ------- null}
+ -t 1.801 -s 2 -d 4 -p cbr -e 210 -c 0 -i 19 -a 0 -x {2.0 3.0 9 ------- null}
- -t 1.801 -s 2 -d 4 -p cbr -e 210 -c 0 -i 19 -a 0 -x {2.0 3.0 9 ------- null}
h -t 1.801 -s 2 -d 4 -p cbr -e 210 -c 0 -i 19 -a 0 -x {2.0 3.0 -1 ------- null}
r -t 1.8024384 -s 4 -d 3 -p cbr -e 210 -c 0 -i 19 -a 0 -x {2.0 3.0 9 ------- null}
r -t 1.8026312 -s 4 -d 1 -p cbr -e 210 -c 0 -i 18 -a 0 -x {0.0 1.0 9 ------- null}
h -t 2 -s 0 -d 4 -p cbr -e 210 -c 0 -i 20 -a 0 -x {0.0 1.0 10 ------- null}
h -t 2 -s 2 -d 4 -p cbr -e 210 -c 0 -i 21 -a 0 -x {2.0 3.0 10 ------- null}
+ -t 2.001 -s 0 -d 4 -p cbr -e 210 -c 0 -i 20 -a 0 -x {0.0 1.0 10 ------- null}
- -t 2.001 -s 0 -d 4 -p cbr -e 210 -c 0 -i 20 -a 0 -x {0.0 1.0 10 ------- null}
h -t 2.001 -s 0 -d 4 -p cbr -e 210 -c 0 -i 20 -a 0 -x {0.0 1.0 -1 ------- null}
+ -t 2.001 -s 2 -d 4 -p cbr -e 210 -c 0 -i 21 -a 0 -x {2.0 3.0 10 ------- null}
- -t 2.001 -s 2 -d 4 -p cbr -e 210 -c 0 -i 21 -a 0 -x {2.0 3.0 10 ------- null}
h -t 2.001 -s 2 -d 4 -p cbr -e 210 -c 0 -i 21 -a 0 -x {2.0 3.0 -1 ------- null}
r -t 2.0023192 -s 4 -d 3 -p cbr -e 210 -c 0 -i 21 -a 0 -x {2.0 3.0 10 ------- null}
r -t 2.002512 -s 4 -d 1 -p cbr -e 210 -c 0 -i 20 -a 0 -x {0.0 1.0 10 ------- null}
h -t 2.2 -s 0 -d 4 -p cbr -e 210 -c 0 -i 22 -a 0 -x {0.0 1.0 11 ------- null}
h -t 2.2 -s 2 -d 4 -p cbr -e 210 -c 0 -i 23 -a 0 -x {2.0 3.0 11 ------- null}
+ -t 2.201 -s 0 -d 4 -p cbr -e 210 -c 0 -i 22 -a 0 -x {0.0 1.0 11 ------- null}
- -t 2.201 -s 0 -d 4 -p cbr -e 210 -c 0 -i 22 -a 0 -x {0.0 1.0 11 ------- null}
h -t 2.201 -s 0 -d 4 -p cbr -e 210 -c 0 -i 22 -a 0 -x {0.0 1.0 -1 ------- null}
+ -t 2.201 -s 2 -d 4 -p cbr -e 210 -c 0 -i 23 -a 0 -x {2.0 3.0 11 ------- null}
- -t 2.201 -s 2 -d 4 -p cbr -e 210 -c 0 -i 23 -a 0 -x {2.0 3.0 11 ------- null}
h -t 2.201 -s 2 -d 4 -p cbr -e 210 -c 0 -i 23 -a 0 -x {2.0 3.0 -1 ------- null}
r -t 2.202268 -s 4 -d 1 -p cbr -e 210 -c 0 -i 22 -a 0 -x {0.0 1.0 11 ------- null}
r -t 2.2024608 -s 4 -d 3 -p cbr -e 210 -c 0 -i 23 -a 0 -x {2.0 3.0 11 ------- null}
h -t 2.4 -s 0 -d 4 -p cbr -e 210 -c 0 -i 24 -a 0 -x {0.0 1.0 12 ------- null}
h -t 2.4 -s 2 -d 4 -p cbr -e 210 -c 0 -i 25 -a 0 -x {2.0 3.0 12 ------- null}
+ -t 2.401 -s 0 -d 4 -p cbr -e 210 -c 0 -i 24 -a 0 -x {0.0 1.0 12 ------- null}
- -t 2.401 -s 0 -d 4 -p cbr -e 210 -c 0 -i 24 -a 0 -x {0.0 1.0 12 ------- null}
h -t 2.401 -s 0 -d 4 -p cbr -e 210 -c 0 -i 24 -a 0 -x {0.0 1.0 -1 ------- null}
+ -t 2.401 -s 2 -d 4 -p cbr -e 210 -c 0 -i 25 -a 0 -x {2.0 3.0 12 ------- null}
- -t 2.401 -s 2 -d 4 -p cbr -e 210 -c 0 -i 25 -a 0 -x {2.0 3.0 12 ------- null}
h -t 2.401 -s 2 -d 4 -p cbr -e 210 -c 0 -i 25 -a 0 -x {2.0 3.0 -1 ------- null}
r -t 2.4022 -s 4 -d 3 -p cbr -e 210 -c 0 -i 25 -a 0 -x {2.0 3.0 12 ------- null}
r -t 2.4023928 -s 4 -d 1 -p cbr -e 210 -c 0 -i 24 -a 0 -x {0.0 1.0 12 ------- null}
h -t 2.6 -s 0 -d 4 -p cbr -e 210 -c 0 -i 26 -a 0 -x {0.0 1.0 13 ------- null}
h -t 2.6 -s 2 -d 4 -p cbr -e 210 -c 0 -i 27 -a 0 -x {2.0 3.0 13 ------- null}
+ -t 2.601 -s 0 -d 4 -p cbr -e 210 -c 0 -i 26 -a 0 -x {0.0 1.0 13 ------- null}
- -t 2.601 -s 0 -d 4 -p cbr -e 210 -c 0 -i 26 -a 0 -x {0.0 1.0 13 ------- null}
h -t 2.601 -s 0 -d 4 -p cbr -e 210 -c 0 -i 26 -a 0 -x {0.0 1.0 -1 ------- null}
+ -t 2.601 -s 2 -d 4 -p cbr -e 210 -c 0 -i 27 -a 0 -x {2.0 3.0 13 ------- null}
- -t 2.601 -s 2 -d 4 -p cbr -e 210 -c 0 -i 27 -a 0 -x {2.0 3.0 13 ------- null}
h -t 2.601 -s 2 -d 4 -p cbr -e 210 -c 0 -i 27 -a 0 -x {2.0 3.0 -1 ------- null}
r -t 2.6023704 -s 4 -d 1 -p cbr -e 210 -c 0 -i 26 -a 0 -x {0.0 1.0 13 ------- null}
r -t 2.6025632 -s 4 -d 3 -p cbr -e 210 -c 0 -i 27 -a 0 -x {2.0 3.0 13 ------- null}
h -t 2.8 -s 0 -d 4 -p cbr -e 210 -c 0 -i 28 -a 0 -x {0.0 1.0 14 ------- null}
h -t 2.8 -s 2 -d 4 -p cbr -e 210 -c 0 -i 29 -a 0 -x {2.0 3.0 14 ------- null}
+ -t 2.801 -s 0 -d 4 -p cbr -e 210 -c 0 -i 28 -a 0 -x {0.0 1.0 14 ------- null}
- -t 2.801 -s 0 -d 4 -p cbr -e 210 -c 0 -i 28 -a 0 -x {0.0 1.0 14 ------- null}
h -t 2.801 -s 0 -d 4 -p cbr -e 210 -c 0 -i 28 -a 0 -x {0.0 1.0 -1 ------- null}
+ -t 2.801 -s 2 -d 4 -p cbr -e 210 -c 0 -i 29 -a 0 -x {2.0 3.0 14 ------- null}
- -t 2.801 -s 2 -d 4 -p cbr -e 210 -c 0 -i 29 -a 0 -x {2.0 3.0 14 ------- null}
h -t 2.801 -s 2 -d 4 -p cbr -e 210 -c 0 -i 29 -a 0 -x {2.0 3.0 -1 ------- null}
r -t 2.8024896 -s 4 -d 1 -p cbr -e 210 -c 0 -i 28 -a 0 -x {0.0 1.0 14 ------- null}
r -t 2.8026824 -s 4 -d 3 -p cbr -e 210 -c 0 -i 29 -a 0 -x {2.0 3.0 14 ------- null}
