+ 0.1 2 0 tcp 40 ------- 1 2.0 7.0 0 0
- 0.1 2 0 tcp 40 ------- 1 2.0 7.0 0 0
r 0.120032 2 0 tcp 40 ------- 1 2.0 7.0 0 0
+ 0.120032 0 1 tcp 40 ------- 1 2.0 7.0 0 0
- 0.120032 0 1 tcp 40 ------- 1 2.0 7.0 0 0
r 0.160245 0 1 tcp 40 ------- 1 2.0 7.0 0 0
+ 0.160245 1 7 tcp 40 ------- 1 2.0 7.0 0 0
- 0.160245 1 7 tcp 40 ------- 1 2.0 7.0 0 0
r 0.180277 1 7 tcp 40 ------- 1 2.0 7.0 0 0
+ 0.180277 7 1 ack 40 ------- 1 7.0 2.0 0 1
- 0.180277 7 1 ack 40 ------- 1 7.0 2.0 0 1
+ 0.2 4 0 tcp 40 ------- 2 4.0 10.0 0 2
- 0.2 4 0 tcp 40 ------- 2 4.0 10.0 0 2
r 0.200309 7 1 ack 40 ------- 1 7.0 2.0 0 1
+ 0.200309 1 0 ack 40 ------- 1 7.0 2.0 0 1
- 0.200309 1 0 ack 40 ------- 1 7.0 2.0 0 1
r 0.220032 4 0 tcp 40 ------- 2 4.0 10.0 0 2
+ 0.220032 0 1 tcp 40 ------- 2 4.0 10.0 0 2
- 0.220032 0 1 tcp 40 ------- 2 4.0 10.0 0 2
r 0.240523 1 0 ack 40 ------- 1 7.0 2.0 0 1
+ 0.240523 0 2 ack 40 ------- 1 7.0 2.0 0 1
- 0.240523 0 2 ack 40 ------- 1 7.0 2.0 0 1
r 0.260245 0 1 tcp 40 ------- 2 4.0 10.0 0 2
+ 0.260245 1 10 tcp 40 ------- 2 4.0 10.0 0 2
- 0.260245 1 10 tcp 40 ------- 2 4.0 10.0 0 2
r 0.260555 0 2 ack 40 ------- 1 7.0 2.0 0 1
+ 0.260555 2 0 tcp 1040 ------- 1 2.0 7.0 1 3
- 0.260555 2 0 tcp 1040 ------- 1 2.0 7.0 1 3
r 0.280277 1 10 tcp 40 ------- 2 4.0 10.0 0 2
+ 0.280277 10 1 ack 40 ------- 2 10.0 4.0 0 4
- 0.280277 10 1 ack 40 ------- 2 10.0 4.0 0 4
r 0.281387 2 0 tcp 1040 ------- 1 2.0 7.0 1 3
+ 0.281387 0 1 tcp 1040 ------- 1 2.0 7.0 1 3
- 0.281387 0 1 tcp 1040 ------- 1 2.0 7.0 1 3
r 0.300309 10 1 ack 40 ------- 2 10.0 4.0 0 4
+ 0.300309 1 0 ack 40 ------- 2 10.0 4.0 0 4
- 0.300309 1 0 ack 40 ------- 2 10.0 4.0 0 4
r 0.326933 0 1 tcp 1040 ------- 1 2.0 7.0 1 3
+ 0.326933 1 7 tcp 1040 ------- 1 2.0 7.0 1 3
- 0.326933 1 7 tcp 1040 ------- 1 2.0 7.0 1 3
r 0.340523 1 0 ack 40 ------- 2 10.0 4.0 0 4
+ 0.340523 0 4 ack 40 ------- 2 10.0 4.0 0 4
- 0.340523 0 4 ack 40 ------- 2 10.0 4.0 0 4
r 0.347765 1 7 tcp 1040 ------- 1 2.0 7.0 1 3
+ 0.347765 7 1 ack 40 ------- 1 7.0 2.0 1 5
- 0.347765 7 1 ack 40 ------- 1 7.0 2.0 1 5
r 0.360555 0 4 ack 40 ------- 2 10.0 4.0 0 4
+ 0.360555 4 0 tcp 1040 ------- 2 4.0 10.0 1 6
- 0.360555 4 0 tcp 1040 ------- 2 4.0 10.0 1 6
r 0.367797 7 1 ack 40 ------- 1 7.0 2.0 1 5
+ 0.367797 1 0 ack 40 ------- 1 7.0 2.0 1 5
- 0.367797 1 0 ack 40 ------- 1 7.0 2.0 1 5
r 0.381387 4 0 tcp 1040 ------- 2 4.0 10.0 1 6
+ 0.381387 0 1 tcp 1040 ------- 2 4.0 10.0 1 6
- 0.381387 0 1 tcp 1040 ------- 2 4.0 10.0 1 6
r 0.408011 1 0 ack 40 ------- 1 7.0 2.0 1 5
+ 0.408011 0 2 ack 40 ------- 1 7.0 2.0 1 5
- 0.408011 0 2 ack 40 ------- 1 7.0 2.0 1 5
r 0.426933 0 1 tcp 1040 ------- 2 4.0 10.0 1 6
+ 0.426933 1 10 tcp 1040 ------- 2 4.0 10.0 1 6
- 0.426933 1 10 tcp 1040 ------- 2 4.0 10.0 1 6
r 0.428043 0 2 ack 40 ------- 1 7.0 2.0 1 5
+ 0.428043 7 1 tcp 40 ------- 1 7.0 2.0 0 7
- 0.428043 7 1 tcp 40 ------- 1 7.0 2.0 0 7
r 0.447765 1 10 tcp 1040 ------- 2 4.0 10.0 1 6
+ 0.447765 10 1 ack 40 ------- 2 10.0 4.0 1 8
- 0.447765 10 1 ack 40 ------- 2 10.0 4.0 1 8
r 0.448075 7 1 tcp 40 ------- 1 7.0 2.0 0 7
+ 0.448075 1 0 tcp 40 ------- 1 7.0 2.0 0 7
- 0.448075 1 0 tcp 40 ------- 1 7.0 2.0 0 7
r 0.467797 10 1 ack 40 ------- 2 10.0 4.0 1 8
+ 0.467797 1 0 ack 40 ------- 2 10.0 4.0 1 8
- 0.467797 1 0 ack 40 ------- 2 10.0 4.0 1 8
r 0.488288 1 0 tcp 40 ------- 1 7.0 2.0 0 7
+ 0.488288 0 2 tcp 40 ------- 1 7.0 2.0 0 7
- 0.488288 0 2 tcp 40 ------- 1 7.0 2.0 0 7
r 0.508011 1 0 ack 40 ------- 2 10.0 4.0 1 8
+ 0.508011 0 4 ack 40 ------- 2 10.0 4.0 1 8
- 0.508011 0 4 ack 40 ------- 2 10.0 4.0 1 8
r 0.50832 0 2 tcp 40 ------- 1 7.0 2.0 0 7
+ 0.50832 2 0 ack 40 ------- 1 2.0 7.0 0 9
- 0.50832 2 0 ack 40 ------- 1 2.0 7.0 0 9
r 0.528043 0 4 ack 40 ------- 2 10.0 4.0 1 8
+ 0.528043 10 1 tcp 40 ------- 2 10.0 4.0 0 10
- 0.528043 10 1 tcp 40 ------- 2 10.0 4.0 0 10
r 0.528352 2 0 ack 40 ------- 1 2.0 7.0 0 9
+ 0.528352 0 1 ack 40 ------- 1 2.0 7.0 0 9
- 0.528352 0 1 ack 40 ------- 1 2.0 7.0 0 9
r 0.548075 10 1 tcp 40 ------- 2 10.0 4.0 0 10
+ 0.548075 1 0 tcp 40 ------- 2 10.0 4.0 0 10
- 0.548075 1 0 tcp 40 ------- 2 10.0 4.0 0 10
r 0.568565 0 1 ack 40 ------- 1 2.0 7.0 0 9
+ 0.568565 1 7 ack 40 ------- 1 2.0 7.0 0 9
- 0.568565 1 7 ack 40 ------- 1 2.0 7.0 0 9
r 0.588288 1 0 tcp 40 ------- 2 10.0 4.0 0 10
+ 0.588288 0 4 tcp 40 ------- 2 10.0 4.0 0 10
- 0.588288 0 4 tcp 40 ------- 2 10.0 4.0 0 10
r 0.588597 1 7 ack 40 ------- 1 2.0 7.0 0 9
+ 0.588597 7 1 tcp 1040 ------- 1 7.0 2.0 1 11
- 0.588597 7 1 tcp 1040 ------- 1 7.0 2.0 1 11
+ 0.588597 7 1 tcp 1040 ------- 1 7.0 2.0 2 12
- 0.589429 7 1 tcp 1040 ------- 1 7.0 2.0 2 12
r 0.60832 0 4 tcp 40 ------- 2 10.0 4.0 0 10
+ 0.60832 4 0 ack 40 ------- 2 4.0 10.0 0 13
- 0.60832 4 0 ack 40 ------- 2 4.0 10.0 0 13
r 0.609429 7 1 tcp 1040 ------- 1 7.0 2.0 1 11
+ 0.609429 1 0 tcp 1040 ------- 1 7.0 2.0 1 11
- 0.609429 1 0 tcp 1040 ------- 1 7.0 2.0 1 11
r 0.610261 7 1 tcp 1040 ------- 1 7.0 2.0 2 12
+ 0.610261 1 0 tcp 1040 ------- 1 7.0 2.0 2 12
- 0.614976 1 0 tcp 1040 ------- 1 7.0 2.0 2 12
r 0.628352 4 0 ack 40 ------- 2 4.0 10.0 0 13
+ 0.628352 0 1 ack 40 ------- 2 4.0 10.0 0 13
- 0.628352 0 1 ack 40 ------- 2 4.0 10.0 0 13
r 0.654976 1 0 tcp 1040 ------- 1 7.0 2.0 1 11
+ 0.654976 0 2 tcp 1040 ------- 1 7.0 2.0 1 11
- 0.654976 0 2 tcp 1040 ------- 1 7.0 2.0 1 11
r 0.660523 1 0 tcp 1040 ------- 1 7.0 2.0 2 12
+ 0.660523 0 2 tcp 1040 ------- 1 7.0 2.0 2 12
- 0.660523 0 2 tcp 1040 ------- 1 7.0 2.0 2 12
r 0.668565 0 1 ack 40 ------- 2 4.0 10.0 0 13
+ 0.668565 1 10 ack 40 ------- 2 4.0 10.0 0 13
- 0.668565 1 10 ack 40 ------- 2 4.0 10.0 0 13
r 0.675808 0 2 tcp 1040 ------- 1 7.0 2.0 1 11
+ 0.675808 2 0 ack 40 ------- 1 2.0 7.0 1 14
- 0.675808 2 0 ack 40 ------- 1 2.0 7.0 1 14
r 0.681355 0 2 tcp 1040 ------- 1 7.0 2.0 2 12
+ 0.681355 2 0 ack 40 ------- 1 2.0 7.0 2 15
- 0.681355 2 0 ack 40 ------- 1 2.0 7.0 2 15
r 0.688597 1 10 ack 40 ------- 2 4.0 10.0 0 13
+ 0.688597 10 1 tcp 1040 ------- 2 10.0 4.0 1 16
- 0.688597 10 1 tcp 1040 ------- 2 10.0 4.0 1 16
+ 0.688597 10 1 tcp 1040 ------- 2 10.0 4.0 2 17
- 0.689429 10 1 tcp 1040 ------- 2 10.0 4.0 2 17
r 0.69584 2 0 ack 40 ------- 1 2.0 7.0 1 14
+ 0.69584 0 1 ack 40 ------- 1 2.0 7.0 1 14
- 0.69584 0 1 ack 40 ------- 1 2.0 7.0 1 14
r 0.701387 2 0 ack 40 ------- 1 2.0 7.0 2 15
+ 0.701387 0 1 ack 40 ------- 1 2.0 7.0 2 15
- 0.701387 0 1 ack 40 ------- 1 2.0 7.0 2 15
r 0.709429 10 1 tcp 1040 ------- 2 10.0 4.0 1 16
+ 0.709429 1 0 tcp 1040 ------- 2 10.0 4.0 1 16
- 0.709429 1 0 tcp 1040 ------- 2 10.0 4.0 1 16
r 0.710261 10 1 tcp 1040 ------- 2 10.0 4.0 2 17
+ 0.710261 1 0 tcp 1040 ------- 2 10.0 4.0 2 17
- 0.714976 1 0 tcp 1040 ------- 2 10.0 4.0 2 17
r 0.736053 0 1 ack 40 ------- 1 2.0 7.0 1 14
+ 0.736053 1 7 ack 40 ------- 1 2.0 7.0 1 14
- 0.736053 1 7 ack 40 ------- 1 2.0 7.0 1 14
r 0.7416 0 1 ack 40 ------- 1 2.0 7.0 2 15
+ 0.7416 1 7 ack 40 ------- 1 2.0 7.0 2 15
- 0.7416 1 7 ack 40 ------- 1 2.0 7.0 2 15
r 0.754976 1 0 tcp 1040 ------- 2 10.0 4.0 1 16
+ 0.754976 0 4 tcp 1040 ------- 2 10.0 4.0 1 16
- 0.754976 0 4 tcp 1040 ------- 2 10.0 4.0 1 16
r 0.756085 1 7 ack 40 ------- 1 2.0 7.0 1 14
+ 0.756085 7 1 tcp 1040 ------- 1 7.0 2.0 3 18
- 0.756085 7 1 tcp 1040 ------- 1 7.0 2.0 3 18
+ 0.756085 7 1 tcp 1040 ------- 1 7.0 2.0 4 19
- 0.756917 7 1 tcp 1040 ------- 1 7.0 2.0 4 19
r 0.760523 1 0 tcp 1040 ------- 2 10.0 4.0 2 17
+ 0.760523 0 4 tcp 1040 ------- 2 10.0 4.0 2 17
- 0.760523 0 4 tcp 1040 ------- 2 10.0 4.0 2 17
r 0.761632 1 7 ack 40 ------- 1 2.0 7.0 2 15
+ 0.761632 7 1 tcp 1040 ------- 1 7.0 2.0 5 20
- 0.761632 7 1 tcp 1040 ------- 1 7.0 2.0 5 20
+ 0.761632 7 1 tcp 1040 ------- 1 7.0 2.0 6 21
- 0.762464 7 1 tcp 1040 ------- 1 7.0 2.0 6 21
r 0.775808 0 4 tcp 1040 ------- 2 10.0 4.0 1 16
+ 0.775808 4 0 ack 40 ------- 2 4.0 10.0 1 22
- 0.775808 4 0 ack 40 ------- 2 4.0 10.0 1 22
r 0.776917 7 1 tcp 1040 ------- 1 7.0 2.0 3 18
+ 0.776917 1 0 tcp 1040 ------- 1 7.0 2.0 3 18
- 0.776917 1 0 tcp 1040 ------- 1 7.0 2.0 3 18
r 0.777749 7 1 tcp 1040 ------- 1 7.0 2.0 4 19
+ 0.777749 1 0 tcp 1040 ------- 1 7.0 2.0 4 19
r 0.781355 0 4 tcp 1040 ------- 2 10.0 4.0 2 17
+ 0.781355 4 0 ack 40 ------- 2 4.0 10.0 2 23
- 0.781355 4 0 ack 40 ------- 2 4.0 10.0 2 23
r 0.782464 7 1 tcp 1040 ------- 1 7.0 2.0 5 20
+ 0.782464 1 0 tcp 1040 ------- 1 7.0 2.0 5 20
- 0.782464 1 0 tcp 1040 ------- 1 7.0 2.0 4 19
r 0.783296 7 1 tcp 1040 ------- 1 7.0 2.0 6 21
+ 0.783296 1 0 tcp 1040 ------- 1 7.0 2.0 6 21
- 0.788011 1 0 tcp 1040 ------- 1 7.0 2.0 5 20
- 0.793557 1 0 tcp 1040 ------- 1 7.0 2.0 6 21
r 0.79584 4 0 ack 40 ------- 2 4.0 10.0 1 22
+ 0.79584 0 1 ack 40 ------- 2 4.0 10.0 1 22
- 0.79584 0 1 ack 40 ------- 2 4.0 10.0 1 22
r 0.801387 4 0 ack 40 ------- 2 4.0 10.0 2 23
+ 0.801387 0 1 ack 40 ------- 2 4.0 10.0 2 23
- 0.801387 0 1 ack 40 ------- 2 4.0 10.0 2 23
r 0.822464 1 0 tcp 1040 ------- 1 7.0 2.0 3 18
+ 0.822464 0 2 tcp 1040 ------- 1 7.0 2.0 3 18
- 0.822464 0 2 tcp 1040 ------- 1 7.0 2.0 3 18
r 0.828011 1 0 tcp 1040 ------- 1 7.0 2.0 4 19
+ 0.828011 0 2 tcp 1040 ------- 1 7.0 2.0 4 19
- 0.828011 0 2 tcp 1040 ------- 1 7.0 2.0 4 19
r 0.833557 1 0 tcp 1040 ------- 1 7.0 2.0 5 20
+ 0.833557 0 2 tcp 1040 ------- 1 7.0 2.0 5 20
- 0.833557 0 2 tcp 1040 ------- 1 7.0 2.0 5 20
r 0.836053 0 1 ack 40 ------- 2 4.0 10.0 1 22
+ 0.836053 1 10 ack 40 ------- 2 4.0 10.0 1 22
- 0.836053 1 10 ack 40 ------- 2 4.0 10.0 1 22
r 0.839104 1 0 tcp 1040 ------- 1 7.0 2.0 6 21
+ 0.839104 0 2 tcp 1040 ------- 1 7.0 2.0 6 21
- 0.839104 0 2 tcp 1040 ------- 1 7.0 2.0 6 21
r 0.8416 0 1 ack 40 ------- 2 4.0 10.0 2 23
+ 0.8416 1 10 ack 40 ------- 2 4.0 10.0 2 23
- 0.8416 1 10 ack 40 ------- 2 4.0 10.0 2 23
r 0.843296 0 2 tcp 1040 ------- 1 7.0 2.0 3 18
+ 0.843296 2 0 ack 40 ------- 1 2.0 7.0 3 24
- 0.843296 2 0 ack 40 ------- 1 2.0 7.0 3 24
r 0.848843 0 2 tcp 1040 ------- 1 7.0 2.0 4 19
+ 0.848843 2 0 ack 40 ------- 1 2.0 7.0 4 25
- 0.848843 2 0 ack 40 ------- 1 2.0 7.0 4 25
r 0.854389 0 2 tcp 1040 ------- 1 7.0 2.0 5 20
+ 0.854389 2 0 ack 40 ------- 1 2.0 7.0 5 26
- 0.854389 2 0 ack 40 ------- 1 2.0 7.0 5 26
r 0.856085 1 10 ack 40 ------- 2 4.0 10.0 1 22
+ 0.856085 10 1 tcp 1040 ------- 2 10.0 4.0 3 27
- 0.856085 10 1 tcp 1040 ------- 2 10.0 4.0 3 27
+ 0.856085 10 1 tcp 1040 ------- 2 10.0 4.0 4 28
- 0.856917 10 1 tcp 1040 ------- 2 10.0 4.0 4 28
r 0.859936 0 2 tcp 1040 ------- 1 7.0 2.0 6 21
+ 0.859936 2 0 ack 40 ------- 1 2.0 7.0 6 29
- 0.859936 2 0 ack 40 ------- 1 2.0 7.0 6 29
r 0.861632 1 10 ack 40 ------- 2 4.0 10.0 2 23
r 0.863328 2 0 ack 40 ------- 1 2.0 7.0 3 24
+ 0.863328 0 1 ack 40 ------- 1 2.0 7.0 3 24
- 0.863328 0 1 ack 40 ------- 1 2.0 7.0 3 24
r 0.868875 2 0 ack 40 ------- 1 2.0 7.0 4 25
+ 0.868875 0 1 ack 40 ------- 1 2.0 7.0 4 25
- 0.868875 0 1 ack 40 ------- 1 2.0 7.0 4 25
r 0.874421 2 0 ack 40 ------- 1 2.0 7.0 5 26
+ 0.874421 0 1 ack 40 ------- 1 2.0 7.0 5 26
- 0.874421 0 1 ack 40 ------- 1 2.0 7.0 5 26
r 0.876917 10 1 tcp 1040 ------- 2 10.0 4.0 3 27
+ 0.876917 1 0 tcp 1040 ------- 2 10.0 4.0 3 27
- 0.876917 1 0 tcp 1040 ------- 2 10.0 4.0 3 27
r 0.877749 10 1 tcp 1040 ------- 2 10.0 4.0 4 28
+ 0.877749 1 0 tcp 1040 ------- 2 10.0 4.0 4 28
r 0.879968 2 0 ack 40 ------- 1 2.0 7.0 6 29
+ 0.879968 0 1 ack 40 ------- 1 2.0 7.0 6 29
- 0.879968 0 1 ack 40 ------- 1 2.0 7.0 6 29
- 0.882464 1 0 tcp 1040 ------- 2 10.0 4.0 4 28
r 0.903541 0 1 ack 40 ------- 1 2.0 7.0 3 24
+ 0.903541 1 7 ack 40 ------- 1 2.0 7.0 3 24
- 0.903541 1 7 ack 40 ------- 1 2.0 7.0 3 24
r 0.909088 0 1 ack 40 ------- 1 2.0 7.0 4 25
+ 0.909088 1 7 ack 40 ------- 1 2.0 7.0 4 25
- 0.909088 1 7 ack 40 ------- 1 2.0 7.0 4 25
r 0.914635 0 1 ack 40 ------- 1 2.0 7.0 5 26
+ 0.914635 1 7 ack 40 ------- 1 2.0 7.0 5 26
- 0.914635 1 7 ack 40 ------- 1 2.0 7.0 5 26
r 0.920181 0 1 ack 40 ------- 1 2.0 7.0 6 29
+ 0.920181 1 7 ack 40 ------- 1 2.0 7.0 6 29
- 0.920181 1 7 ack 40 ------- 1 2.0 7.0 6 29
r 0.922464 1 0 tcp 1040 ------- 2 10.0 4.0 3 27
+ 0.922464 0 4 tcp 1040 ------- 2 10.0 4.0 3 27
- 0.922464 0 4 tcp 1040 ------- 2 10.0 4.0 3 27
r 0.923573 1 7 ack 40 ------- 1 2.0 7.0 3 24
+ 0.923573 7 1 tcp 1040 ------- 1 7.0 2.0 7 30
- 0.923573 7 1 tcp 1040 ------- 1 7.0 2.0 7 30
+ 0.923573 7 1 tcp 1040 ------- 1 7.0 2.0 8 31
- 0.924405 7 1 tcp 1040 ------- 1 7.0 2.0 8 31
r 0.928011 1 0 tcp 1040 ------- 2 10.0 4.0 4 28
+ 0.928011 0 4 tcp 1040 ------- 2 10.0 4.0 4 28
- 0.928011 0 4 tcp 1040 ------- 2 10.0 4.0 4 28
r 0.92912 1 7 ack 40 ------- 1 2.0 7.0 4 25
+ 0.92912 7 1 tcp 1040 ------- 1 7.0 2.0 9 32
- 0.92912 7 1 tcp 1040 ------- 1 7.0 2.0 9 32
+ 0.92912 7 1 tcp 1040 ------- 1 7.0 2.0 10 33
- 0.929952 7 1 tcp 1040 ------- 1 7.0 2.0 10 33
r 0.934667 1 7 ack 40 ------- 1 2.0 7.0 5 26
+ 0.934667 7 1 tcp 1040 ------- 1 7.0 2.0 11 34
- 0.934667 7 1 tcp 1040 ------- 1 7.0 2.0 11 34
+ 0.934667 7 1 tcp 1040 ------- 1 7.0 2.0 12 35
- 0.935499 7 1 tcp 1040 ------- 1 7.0 2.0 12 35
r 0.940213 1 7 ack 40 ------- 1 2.0 7.0 6 29
+ 0.940213 7 1 tcp 1040 ------- 1 7.0 2.0 13 36
- 0.940213 7 1 tcp 1040 ------- 1 7.0 2.0 13 36
+ 0.940213 7 1 tcp 1040 ------- 1 7.0 2.0 14 37
- 0.941045 7 1 tcp 1040 ------- 1 7.0 2.0 14 37
r 0.943296 0 4 tcp 1040 ------- 2 10.0 4.0 3 27
+ 0.943296 4 0 ack 40 ------- 2 4.0 10.0 3 38
- 0.943296 4 0 ack 40 ------- 2 4.0 10.0 3 38
r 0.944405 7 1 tcp 1040 ------- 1 7.0 2.0 7 30
+ 0.944405 1 0 tcp 1040 ------- 1 7.0 2.0 7 30
- 0.944405 1 0 tcp 1040 ------- 1 7.0 2.0 7 30
r 0.945237 7 1 tcp 1040 ------- 1 7.0 2.0 8 31
+ 0.945237 1 0 tcp 1040 ------- 1 7.0 2.0 8 31
r 0.948843 0 4 tcp 1040 ------- 2 10.0 4.0 4 28
+ 0.948843 4 0 ack 40 ------- 2 4.0 10.0 4 39
- 0.948843 4 0 ack 40 ------- 2 4.0 10.0 4 39
r 0.949952 7 1 tcp 1040 ------- 1 7.0 2.0 9 32
+ 0.949952 1 0 tcp 1040 ------- 1 7.0 2.0 9 32
- 0.949952 1 0 tcp 1040 ------- 1 7.0 2.0 8 31
r 0.950784 7 1 tcp 1040 ------- 1 7.0 2.0 10 33
+ 0.950784 1 0 tcp 1040 ------- 1 7.0 2.0 10 33
r 0.955499 7 1 tcp 1040 ------- 1 7.0 2.0 11 34
+ 0.955499 1 0 tcp 1040 ------- 1 7.0 2.0 11 34
- 0.955499 1 0 tcp 1040 ------- 1 7.0 2.0 9 32
r 0.956331 7 1 tcp 1040 ------- 1 7.0 2.0 12 35
+ 0.956331 1 0 tcp 1040 ------- 1 7.0 2.0 12 35
r 0.961045 7 1 tcp 1040 ------- 1 7.0 2.0 13 36
+ 0.961045 1 0 tcp 1040 ------- 1 7.0 2.0 13 36
- 0.961045 1 0 tcp 1040 ------- 1 7.0 2.0 10 33
r 0.961877 7 1 tcp 1040 ------- 1 7.0 2.0 14 37
+ 0.961877 1 0 tcp 1040 ------- 1 7.0 2.0 14 37
r 0.963328 4 0 ack 40 ------- 2 4.0 10.0 3 38
+ 0.963328 0 1 ack 40 ------- 2 4.0 10.0 3 38
- 0.963328 0 1 ack 40 ------- 2 4.0 10.0 3 38
- 0.966592 1 0 tcp 1040 ------- 1 7.0 2.0 11 34
r 0.968875 4 0 ack 40 ------- 2 4.0 10.0 4 39
+ 0.968875 0 1 ack 40 ------- 2 4.0 10.0 4 39
- 0.968875 0 1 ack 40 ------- 2 4.0 10.0 4 39
- 0.972139 1 0 tcp 1040 ------- 1 7.0 2.0 12 35
- 0.977685 1 0 tcp 1040 ------- 1 7.0 2.0 13 36
- 0.983232 1 0 tcp 1040 ------- 1 7.0 2.0 14 37
r 0.989952 1 0 tcp 1040 ------- 1 7.0 2.0 7 30
+ 0.989952 0 2 tcp 1040 ------- 1 7.0 2.0 7 30
- 0.989952 0 2 tcp 1040 ------- 1 7.0 2.0 7 30
r 0.995499 1 0 tcp 1040 ------- 1 7.0 2.0 8 31
+ 0.995499 0 2 tcp 1040 ------- 1 7.0 2.0 8 31
- 0.995499 0 2 tcp 1040 ------- 1 7.0 2.0 8 31
r 1.001045 1 0 tcp 1040 ------- 1 7.0 2.0 9 32
+ 1.001045 0 2 tcp 1040 ------- 1 7.0 2.0 9 32
- 1.001045 0 2 tcp 1040 ------- 1 7.0 2.0 9 32
r 1.003541 0 1 ack 40 ------- 2 4.0 10.0 3 38
+ 1.003541 1 10 ack 40 ------- 2 4.0 10.0 3 38
- 1.003541 1 10 ack 40 ------- 2 4.0 10.0 3 38
r 1.006592 1 0 tcp 1040 ------- 1 7.0 2.0 10 33
+ 1.006592 0 2 tcp 1040 ------- 1 7.0 2.0 10 33
- 1.006592 0 2 tcp 1040 ------- 1 7.0 2.0 10 33
r 1.009088 0 1 ack 40 ------- 2 4.0 10.0 4 39
+ 1.009088 1 10 ack 40 ------- 2 4.0 10.0 4 39
- 1.009088 1 10 ack 40 ------- 2 4.0 10.0 4 39
r 1.010784 0 2 tcp 1040 ------- 1 7.0 2.0 7 30
+ 1.010784 2 0 ack 40 ------- 1 2.0 7.0 7 40
- 1.010784 2 0 ack 40 ------- 1 2.0 7.0 7 40
r 1.012139 1 0 tcp 1040 ------- 1 7.0 2.0 11 34
+ 1.012139 0 2 tcp 1040 ------- 1 7.0 2.0 11 34
- 1.012139 0 2 tcp 1040 ------- 1 7.0 2.0 11 34
r 1.016331 0 2 tcp 1040 ------- 1 7.0 2.0 8 31
+ 1.016331 2 0 ack 40 ------- 1 2.0 7.0 8 41
- 1.016331 2 0 ack 40 ------- 1 2.0 7.0 8 41
r 1.017685 1 0 tcp 1040 ------- 1 7.0 2.0 12 35
+ 1.017685 0 2 tcp 1040 ------- 1 7.0 2.0 12 35
- 1.017685 0 2 tcp 1040 ------- 1 7.0 2.0 12 35
r 1.021877 0 2 tcp 1040 ------- 1 7.0 2.0 9 32
+ 1.021877 2 0 ack 40 ------- 1 2.0 7.0 9 42
- 1.021877 2 0 ack 40 ------- 1 2.0 7.0 9 42
r 1.023232 1 0 tcp 1040 ------- 1 7.0 2.0 13 36
+ 1.023232 0 2 tcp 1040 ------- 1 7.0 2.0 13 36
- 1.023232 0 2 tcp 1040 ------- 1 7.0 2.0 13 36
r 1.023573 1 10 ack 40 ------- 2 4.0 10.0 3 38
r 1.027424 0 2 tcp 1040 ------- 1 7.0 2.0 10 33
+ 1.027424 2 0 ack 40 ------- 1 2.0 7.0 10 43
- 1.027424 2 0 ack 40 ------- 1 2.0 7.0 10 43
r 1.028779 1 0 tcp 1040 ------- 1 7.0 2.0 14 37
+ 1.028779 0 2 tcp 1040 ------- 1 7.0 2.0 14 37
- 1.028779 0 2 tcp 1040 ------- 1 7.0 2.0 14 37
r 1.02912 1 10 ack 40 ------- 2 4.0 10.0 4 39
r 1.030816 2 0 ack 40 ------- 1 2.0 7.0 7 40
+ 1.030816 0 1 ack 40 ------- 1 2.0 7.0 7 40
- 1.030816 0 1 ack 40 ------- 1 2.0 7.0 7 40
r 1.032971 0 2 tcp 1040 ------- 1 7.0 2.0 11 34
+ 1.032971 2 0 ack 40 ------- 1 2.0 7.0 11 44
- 1.032971 2 0 ack 40 ------- 1 2.0 7.0 11 44
r 1.036363 2 0 ack 40 ------- 1 2.0 7.0 8 41
+ 1.036363 0 1 ack 40 ------- 1 2.0 7.0 8 41
- 1.036363 0 1 ack 40 ------- 1 2.0 7.0 8 41
r 1.038517 0 2 tcp 1040 ------- 1 7.0 2.0 12 35
+ 1.038517 2 0 ack 40 ------- 1 2.0 7.0 12 45
- 1.038517 2 0 ack 40 ------- 1 2.0 7.0 12 45
r 1.041909 2 0 ack 40 ------- 1 2.0 7.0 9 42
+ 1.041909 0 1 ack 40 ------- 1 2.0 7.0 9 42
- 1.041909 0 1 ack 40 ------- 1 2.0 7.0 9 42
r 1.044064 0 2 tcp 1040 ------- 1 7.0 2.0 13 36
+ 1.044064 2 0 ack 40 ------- 1 2.0 7.0 13 46
- 1.044064 2 0 ack 40 ------- 1 2.0 7.0 13 46
r 1.047456 2 0 ack 40 ------- 1 2.0 7.0 10 43
+ 1.047456 0 1 ack 40 ------- 1 2.0 7.0 10 43
- 1.047456 0 1 ack 40 ------- 1 2.0 7.0 10 43
r 1.049611 0 2 tcp 1040 ------- 1 7.0 2.0 14 37
+ 1.049611 2 0 ack 40 ------- 1 2.0 7.0 14 47
- 1.049611 2 0 ack 40 ------- 1 2.0 7.0 14 47
r 1.053003 2 0 ack 40 ------- 1 2.0 7.0 11 44
+ 1.053003 0 1 ack 40 ------- 1 2.0 7.0 11 44
- 1.053003 0 1 ack 40 ------- 1 2.0 7.0 11 44
r 1.058549 2 0 ack 40 ------- 1 2.0 7.0 12 45
+ 1.058549 0 1 ack 40 ------- 1 2.0 7.0 12 45
- 1.058549 0 1 ack 40 ------- 1 2.0 7.0 12 45
r 1.064096 2 0 ack 40 ------- 1 2.0 7.0 13 46
+ 1.064096 0 1 ack 40 ------- 1 2.0 7.0 13 46
- 1.064096 0 1 ack 40 ------- 1 2.0 7.0 13 46
r 1.069643 2 0 ack 40 ------- 1 2.0 7.0 14 47
+ 1.069643 0 1 ack 40 ------- 1 2.0 7.0 14 47
- 1.069643 0 1 ack 40 ------- 1 2.0 7.0 14 47
r 1.071029 0 1 ack 40 ------- 1 2.0 7.0 7 40
+ 1.071029 1 7 ack 40 ------- 1 2.0 7.0 7 40
- 1.071029 1 7 ack 40 ------- 1 2.0 7.0 7 40
r 1.076576 0 1 ack 40 ------- 1 2.0 7.0 8 41
+ 1.076576 1 7 ack 40 ------- 1 2.0 7.0 8 41
- 1.076576 1 7 ack 40 ------- 1 2.0 7.0 8 41
r 1.082123 0 1 ack 40 ------- 1 2.0 7.0 9 42
+ 1.082123 1 7 ack 40 ------- 1 2.0 7.0 9 42
- 1.082123 1 7 ack 40 ------- 1 2.0 7.0 9 42
r 1.087669 0 1 ack 40 ------- 1 2.0 7.0 10 43
+ 1.087669 1 7 ack 40 ------- 1 2.0 7.0 10 43
- 1.087669 1 7 ack 40 ------- 1 2.0 7.0 10 43
r 1.091061 1 7 ack 40 ------- 1 2.0 7.0 7 40
r 1.093216 0 1 ack 40 ------- 1 2.0 7.0 11 44
+ 1.093216 1 7 ack 40 ------- 1 2.0 7.0 11 44
- 1.093216 1 7 ack 40 ------- 1 2.0 7.0 11 44
r 1.096608 1 7 ack 40 ------- 1 2.0 7.0 8 41
r 1.098763 0 1 ack 40 ------- 1 2.0 7.0 12 45
+ 1.098763 1 7 ack 40 ------- 1 2.0 7.0 12 45
- 1.098763 1 7 ack 40 ------- 1 2.0 7.0 12 45
r 1.102155 1 7 ack 40 ------- 1 2.0 7.0 9 42
r 1.104309 0 1 ack 40 ------- 1 2.0 7.0 13 46
+ 1.104309 1 7 ack 40 ------- 1 2.0 7.0 13 46
- 1.104309 1 7 ack 40 ------- 1 2.0 7.0 13 46
r 1.107701 1 7 ack 40 ------- 1 2.0 7.0 10 43
r 1.109856 0 1 ack 40 ------- 1 2.0 7.0 14 47
+ 1.109856 1 7 ack 40 ------- 1 2.0 7.0 14 47
- 1.109856 1 7 ack 40 ------- 1 2.0 7.0 14 47
r 1.113248 1 7 ack 40 ------- 1 2.0 7.0 11 44
r 1.118795 1 7 ack 40 ------- 1 2.0 7.0 12 45
r 1.124341 1 7 ack 40 ------- 1 2.0 7.0 13 46
r 1.129888 1 7 ack 40 ------- 1 2.0 7.0 14 47
+ 1.20786 4 0 tcp 40 ------- 3 4.0 10.0 0 48
- 1.20786 4 0 tcp 40 ------- 3 4.0 10.0 0 48
r 1.227892 4 0 tcp 40 ------- 3 4.0 10.0 0 48
+ 1.227892 0 1 tcp 40 ------- 3 4.0 10.0 0 48
- 1.227892 0 1 tcp 40 ------- 3 4.0 10.0 0 48
r 1.268105 0 1 tcp 40 ------- 3 4.0 10.0 0 48
+ 1.268105 1 10 tcp 40 ------- 3 4.0 10.0 0 48
- 1.268105 1 10 tcp 40 ------- 3 4.0 10.0 0 48
r 1.288137 1 10 tcp 40 ------- 3 4.0 10.0 0 48
+ 1.288137 10 1 ack 40 ------- 3 10.0 4.0 0 49
- 1.288137 10 1 ack 40 ------- 3 10.0 4.0 0 49
r 1.308169 10 1 ack 40 ------- 3 10.0 4.0 0 49
+ 1.308169 1 0 ack 40 ------- 3 10.0 4.0 0 49
- 1.308169 1 0 ack 40 ------- 3 10.0 4.0 0 49
r 1.348382 1 0 ack 40 ------- 3 10.0 4.0 0 49
+ 1.348382 0 4 ack 40 ------- 3 10.0 4.0 0 49
- 1.348382 0 4 ack 40 ------- 3 10.0 4.0 0 49
r 1.368414 0 4 ack 40 ------- 3 10.0 4.0 0 49
+ 1.368414 4 0 tcp 1040 ------- 3 4.0 10.0 1 50
- 1.368414 4 0 tcp 1040 ------- 3 4.0 10.0 1 50
r 1.389246 4 0 tcp 1040 ------- 3 4.0 10.0 1 50
+ 1.389246 0 1 tcp 1040 ------- 3 4.0 10.0 1 50
- 1.389246 0 1 tcp 1040 ------- 3 4.0 10.0 1 50
r 1.434793 0 1 tcp 1040 ------- 3 4.0 10.0 1 50
+ 1.434793 1 10 tcp 1040 ------- 3 4.0 10.0 1 50
- 1.434793 1 10 tcp 1040 ------- 3 4.0 10.0 1 50
r 1.455625 1 10 tcp 1040 ------- 3 4.0 10.0 1 50
+ 1.455625 10 1 ack 40 ------- 3 10.0 4.0 1 51
- 1.455625 10 1 ack 40 ------- 3 10.0 4.0 1 51
r 1.475657 10 1 ack 40 ------- 3 10.0 4.0 1 51
+ 1.475657 1 0 ack 40 ------- 3 10.0 4.0 1 51
- 1.475657 1 0 ack 40 ------- 3 10.0 4.0 1 51
r 1.51587 1 0 ack 40 ------- 3 10.0 4.0 1 51
+ 1.51587 0 4 ack 40 ------- 3 10.0 4.0 1 51
- 1.51587 0 4 ack 40 ------- 3 10.0 4.0 1 51
r 1.535902 0 4 ack 40 ------- 3 10.0 4.0 1 51
+ 1.535902 10 1 tcp 40 ------- 3 10.0 4.0 0 52
- 1.535902 10 1 tcp 40 ------- 3 10.0 4.0 0 52
r 1.555934 10 1 tcp 40 ------- 3 10.0 4.0 0 52
+ 1.555934 1 0 tcp 40 ------- 3 10.0 4.0 0 52
- 1.555934 1 0 tcp 40 ------- 3 10.0 4.0 0 52
r 1.596148 1 0 tcp 40 ------- 3 10.0 4.0 0 52
+ 1.596148 0 4 tcp 40 ------- 3 10.0 4.0 0 52
- 1.596148 0 4 tcp 40 ------- 3 10.0 4.0 0 52
r 1.61618 0 4 tcp 40 ------- 3 10.0 4.0 0 52
+ 1.61618 4 0 ack 40 ------- 3 4.0 10.0 0 53
- 1.61618 4 0 ack 40 ------- 3 4.0 10.0 0 53
r 1.636212 4 0 ack 40 ------- 3 4.0 10.0 0 53
+ 1.636212 0 1 ack 40 ------- 3 4.0 10.0 0 53
- 1.636212 0 1 ack 40 ------- 3 4.0 10.0 0 53
r 1.676425 0 1 ack 40 ------- 3 4.0 10.0 0 53
+ 1.676425 1 10 ack 40 ------- 3 4.0 10.0 0 53
- 1.676425 1 10 ack 40 ------- 3 4.0 10.0 0 53
r 1.696457 1 10 ack 40 ------- 3 4.0 10.0 0 53
+ 1.696457 10 1 tcp 1040 ------- 3 10.0 4.0 1 54
- 1.696457 10 1 tcp 1040 ------- 3 10.0 4.0 1 54
+ 1.696457 10 1 tcp 1040 ------- 3 10.0 4.0 2 55
- 1.697289 10 1 tcp 1040 ------- 3 10.0 4.0 2 55
r 1.717289 10 1 tcp 1040 ------- 3 10.0 4.0 1 54
+ 1.717289 1 0 tcp 1040 ------- 3 10.0 4.0 1 54
- 1.717289 1 0 tcp 1040 ------- 3 10.0 4.0 1 54
r 1.718121 10 1 tcp 1040 ------- 3 10.0 4.0 2 55
+ 1.718121 1 0 tcp 1040 ------- 3 10.0 4.0 2 55
- 1.722836 1 0 tcp 1040 ------- 3 10.0 4.0 2 55
r 1.762836 1 0 tcp 1040 ------- 3 10.0 4.0 1 54
+ 1.762836 0 4 tcp 1040 ------- 3 10.0 4.0 1 54
- 1.762836 0 4 tcp 1040 ------- 3 10.0 4.0 1 54
r 1.768382 1 0 tcp 1040 ------- 3 10.0 4.0 2 55
+ 1.768382 0 4 tcp 1040 ------- 3 10.0 4.0 2 55
- 1.768382 0 4 tcp 1040 ------- 3 10.0 4.0 2 55
r 1.783668 0 4 tcp 1040 ------- 3 10.0 4.0 1 54
+ 1.783668 4 0 ack 40 ------- 3 4.0 10.0 1 56
- 1.783668 4 0 ack 40 ------- 3 4.0 10.0 1 56
r 1.789214 0 4 tcp 1040 ------- 3 10.0 4.0 2 55
+ 1.789214 4 0 ack 40 ------- 3 4.0 10.0 2 57
- 1.789214 4 0 ack 40 ------- 3 4.0 10.0 2 57
r 1.8037 4 0 ack 40 ------- 3 4.0 10.0 1 56
+ 1.8037 0 1 ack 40 ------- 3 4.0 10.0 1 56
- 1.8037 0 1 ack 40 ------- 3 4.0 10.0 1 56
r 1.809246 4 0 ack 40 ------- 3 4.0 10.0 2 57
+ 1.809246 0 1 ack 40 ------- 3 4.0 10.0 2 57
- 1.809246 0 1 ack 40 ------- 3 4.0 10.0 2 57
r 1.843913 0 1 ack 40 ------- 3 4.0 10.0 1 56
+ 1.843913 1 10 ack 40 ------- 3 4.0 10.0 1 56
- 1.843913 1 10 ack 40 ------- 3 4.0 10.0 1 56
r 1.84946 0 1 ack 40 ------- 3 4.0 10.0 2 57
+ 1.84946 1 10 ack 40 ------- 3 4.0 10.0 2 57
- 1.84946 1 10 ack 40 ------- 3 4.0 10.0 2 57
r 1.863945 1 10 ack 40 ------- 3 4.0 10.0 1 56
+ 1.863945 10 1 tcp 1040 ------- 3 10.0 4.0 3 58
- 1.863945 10 1 tcp 1040 ------- 3 10.0 4.0 3 58
+ 1.863945 10 1 tcp 1040 ------- 3 10.0 4.0 4 59
- 1.864777 10 1 tcp 1040 ------- 3 10.0 4.0 4 59
r 1.869492 1 10 ack 40 ------- 3 4.0 10.0 2 57
+ 1.869492 10 1 tcp 1040 ------- 3 10.0 4.0 5 60
- 1.869492 10 1 tcp 1040 ------- 3 10.0 4.0 5 60
+ 1.869492 10 1 tcp 1040 ------- 3 10.0 4.0 6 61
- 1.870324 10 1 tcp 1040 ------- 3 10.0 4.0 6 61
r 1.884777 10 1 tcp 1040 ------- 3 10.0 4.0 3 58
+ 1.884777 1 0 tcp 1040 ------- 3 10.0 4.0 3 58
- 1.884777 1 0 tcp 1040 ------- 3 10.0 4.0 3 58
r 1.885609 10 1 tcp 1040 ------- 3 10.0 4.0 4 59
+ 1.885609 1 0 tcp 1040 ------- 3 10.0 4.0 4 59
r 1.890324 10 1 tcp 1040 ------- 3 10.0 4.0 5 60
+ 1.890324 1 0 tcp 1040 ------- 3 10.0 4.0 5 60
- 1.890324 1 0 tcp 1040 ------- 3 10.0 4.0 4 59
r 1.891156 10 1 tcp 1040 ------- 3 10.0 4.0 6 61
+ 1.891156 1 0 tcp 1040 ------- 3 10.0 4.0 6 61
- 1.89587 1 0 tcp 1040 ------- 3 10.0 4.0 5 60
- 1.901417 1 0 tcp 1040 ------- 3 10.0 4.0 6 61
r 1.930324 1 0 tcp 1040 ------- 3 10.0 4.0 3 58
+ 1.930324 0 4 tcp 1040 ------- 3 10.0 4.0 3 58
- 1.930324 0 4 tcp 1040 ------- 3 10.0 4.0 3 58
r 1.93587 1 0 tcp 1040 ------- 3 10.0 4.0 4 59
+ 1.93587 0 4 tcp 1040 ------- 3 10.0 4.0 4 59
- 1.93587 0 4 tcp 1040 ------- 3 10.0 4.0 4 59
r 1.941417 1 0 tcp 1040 ------- 3 10.0 4.0 5 60
+ 1.941417 0 4 tcp 1040 ------- 3 10.0 4.0 5 60
- 1.941417 0 4 tcp 1040 ------- 3 10.0 4.0 5 60
r 1.946964 1 0 tcp 1040 ------- 3 10.0 4.0 6 61
+ 1.946964 0 4 tcp 1040 ------- 3 10.0 4.0 6 61
- 1.946964 0 4 tcp 1040 ------- 3 10.0 4.0 6 61
r 1.951156 0 4 tcp 1040 ------- 3 10.0 4.0 3 58
+ 1.951156 4 0 ack 40 ------- 3 4.0 10.0 3 62
- 1.951156 4 0 ack 40 ------- 3 4.0 10.0 3 62
r 1.956702 0 4 tcp 1040 ------- 3 10.0 4.0 4 59
+ 1.956702 4 0 ack 40 ------- 3 4.0 10.0 4 63
- 1.956702 4 0 ack 40 ------- 3 4.0 10.0 4 63
r 1.962249 0 4 tcp 1040 ------- 3 10.0 4.0 5 60
+ 1.962249 4 0 ack 40 ------- 3 4.0 10.0 5 64
- 1.962249 4 0 ack 40 ------- 3 4.0 10.0 5 64
r 1.967796 0 4 tcp 1040 ------- 3 10.0 4.0 6 61
+ 1.967796 4 0 ack 40 ------- 3 4.0 10.0 6 65
- 1.967796 4 0 ack 40 ------- 3 4.0 10.0 6 65
r 1.971188 4 0 ack 40 ------- 3 4.0 10.0 3 62
+ 1.971188 0 1 ack 40 ------- 3 4.0 10.0 3 62
- 1.971188 0 1 ack 40 ------- 3 4.0 10.0 3 62
r 1.976734 4 0 ack 40 ------- 3 4.0 10.0 4 63
+ 1.976734 0 1 ack 40 ------- 3 4.0 10.0 4 63
- 1.976734 0 1 ack 40 ------- 3 4.0 10.0 4 63
r 1.982281 4 0 ack 40 ------- 3 4.0 10.0 5 64
+ 1.982281 0 1 ack 40 ------- 3 4.0 10.0 5 64
- 1.982281 0 1 ack 40 ------- 3 4.0 10.0 5 64
r 1.987828 4 0 ack 40 ------- 3 4.0 10.0 6 65
+ 1.987828 0 1 ack 40 ------- 3 4.0 10.0 6 65
- 1.987828 0 1 ack 40 ------- 3 4.0 10.0 6 65
r 2.011401 0 1 ack 40 ------- 3 4.0 10.0 3 62
+ 2.011401 1 10 ack 40 ------- 3 4.0 10.0 3 62
- 2.011401 1 10 ack 40 ------- 3 4.0 10.0 3 62
r 2.016948 0 1 ack 40 ------- 3 4.0 10.0 4 63
+ 2.016948 1 10 ack 40 ------- 3 4.0 10.0 4 63
- 2.016948 1 10 ack 40 ------- 3 4.0 10.0 4 63
r 2.022494 0 1 ack 40 ------- 3 4.0 10.0 5 64
+ 2.022494 1 10 ack 40 ------- 3 4.0 10.0 5 64
- 2.022494 1 10 ack 40 ------- 3 4.0 10.0 5 64
r 2.028041 0 1 ack 40 ------- 3 4.0 10.0 6 65
+ 2.028041 1 10 ack 40 ------- 3 4.0 10.0 6 65
- 2.028041 1 10 ack 40 ------- 3 4.0 10.0 6 65
r 2.031433 1 10 ack 40 ------- 3 4.0 10.0 3 62
+ 2.031433 10 1 tcp 1040 ------- 3 10.0 4.0 7 66
- 2.031433 10 1 tcp 1040 ------- 3 10.0 4.0 7 66
+ 2.031433 10 1 tcp 1040 ------- 3 10.0 4.0 8 67
- 2.032265 10 1 tcp 1040 ------- 3 10.0 4.0 8 67
r 2.03698 1 10 ack 40 ------- 3 4.0 10.0 4 63
+ 2.03698 10 1 tcp 1040 ------- 3 10.0 4.0 9 68
- 2.03698 10 1 tcp 1040 ------- 3 10.0 4.0 9 68
+ 2.03698 10 1 tcp 1040 ------- 3 10.0 4.0 10 69
- 2.037812 10 1 tcp 1040 ------- 3 10.0 4.0 10 69
r 2.042526 1 10 ack 40 ------- 3 4.0 10.0 5 64
+ 2.042526 10 1 tcp 1040 ------- 3 10.0 4.0 11 70
- 2.042526 10 1 tcp 1040 ------- 3 10.0 4.0 11 70
r 2.048073 1 10 ack 40 ------- 3 4.0 10.0 6 65
r 2.052265 10 1 tcp 1040 ------- 3 10.0 4.0 7 66
+ 2.052265 1 0 tcp 1040 ------- 3 10.0 4.0 7 66
- 2.052265 1 0 tcp 1040 ------- 3 10.0 4.0 7 66
r 2.053097 10 1 tcp 1040 ------- 3 10.0 4.0 8 67
+ 2.053097 1 0 tcp 1040 ------- 3 10.0 4.0 8 67
r 2.057812 10 1 tcp 1040 ------- 3 10.0 4.0 9 68
+ 2.057812 1 0 tcp 1040 ------- 3 10.0 4.0 9 68
- 2.057812 1 0 tcp 1040 ------- 3 10.0 4.0 8 67
r 2.058644 10 1 tcp 1040 ------- 3 10.0 4.0 10 69
+ 2.058644 1 0 tcp 1040 ------- 3 10.0 4.0 10 69
r 2.063358 10 1 tcp 1040 ------- 3 10.0 4.0 11 70
+ 2.063358 1 0 tcp 1040 ------- 3 10.0 4.0 11 70
- 2.063358 1 0 tcp 1040 ------- 3 10.0 4.0 9 68
- 2.068905 1 0 tcp 1040 ------- 3 10.0 4.0 10 69
- 2.074452 1 0 tcp 1040 ------- 3 10.0 4.0 11 70
r 2.097812 1 0 tcp 1040 ------- 3 10.0 4.0 7 66
+ 2.097812 0 4 tcp 1040 ------- 3 10.0 4.0 7 66
- 2.097812 0 4 tcp 1040 ------- 3 10.0 4.0 7 66
r 2.103358 1 0 tcp 1040 ------- 3 10.0 4.0 8 67
+ 2.103358 0 4 tcp 1040 ------- 3 10.0 4.0 8 67
- 2.103358 0 4 tcp 1040 ------- 3 10.0 4.0 8 67
r 2.108905 1 0 tcp 1040 ------- 3 10.0 4.0 9 68
+ 2.108905 0 4 tcp 1040 ------- 3 10.0 4.0 9 68
- 2.108905 0 4 tcp 1040 ------- 3 10.0 4.0 9 68
r 2.114452 1 0 tcp 1040 ------- 3 10.0 4.0 10 69
+ 2.114452 0 4 tcp 1040 ------- 3 10.0 4.0 10 69
- 2.114452 0 4 tcp 1040 ------- 3 10.0 4.0 10 69
r 2.118644 0 4 tcp 1040 ------- 3 10.0 4.0 7 66
+ 2.118644 4 0 ack 40 ------- 3 4.0 10.0 7 71
- 2.118644 4 0 ack 40 ------- 3 4.0 10.0 7 71
r 2.119998 1 0 tcp 1040 ------- 3 10.0 4.0 11 70
+ 2.119998 0 4 tcp 1040 ------- 3 10.0 4.0 11 70
- 2.119998 0 4 tcp 1040 ------- 3 10.0 4.0 11 70
r 2.12419 0 4 tcp 1040 ------- 3 10.0 4.0 8 67
+ 2.12419 4 0 ack 40 ------- 3 4.0 10.0 8 72
- 2.12419 4 0 ack 40 ------- 3 4.0 10.0 8 72
r 2.129737 0 4 tcp 1040 ------- 3 10.0 4.0 9 68
+ 2.129737 4 0 ack 40 ------- 3 4.0 10.0 9 73
- 2.129737 4 0 ack 40 ------- 3 4.0 10.0 9 73
r 2.135284 0 4 tcp 1040 ------- 3 10.0 4.0 10 69
+ 2.135284 4 0 ack 40 ------- 3 4.0 10.0 10 74