V -t * -v 1.0a5 -a 0
A -t * -n 1 -p 0 -o 0x7fffffff -c 30 -a 1
A -t * -h 1 -m 1073741823 -s 0
c -t * -i 17 -n black
c -t * -i 18 -n blue
c -t * -i 1 -n red
c -t * -i 20 -n green
c -t * -i 19 -n red
c -t * -i 2 -n green
c -t * -i 21 -n yellow
c -t * -i 3 -n yellow
c -t * -i 22 -n brown
c -t * -i 4 -n brown
c -t * -i 23 -n black
c -t * -i 5 -n black
c -t * -i 24 -n blue
c -t * -i 6 -n blue
c -t * -i 25 -n red
c -t * -i 7 -n red
c -t * -i 26 -n green
c -t * -i 8 -n green
c -t * -i 27 -n yellow
c -t * -i 9 -n yellow
c -t * -i 10 -n brown
c -t * -i 28 -n brown
c -t * -i 11 -n black
c -t * -i 30 -n blue
c -t * -i 29 -n black
c -t * -i 12 -n blue
c -t * -i 13 -n red
c -t * -i 14 -n green
c -t * -i 15 -n yellow
c -t * -i 16 -n brown
n -t * -a 0 -s 0 -S UP -v circle -c black -i black
n -t * -a 1 -s 1 -S UP -v circle -c black -i black
n -t * -a 2 -s 2 -S UP -v circle -c black -i black
n -t * -a 3 -s 3 -S UP -v circle -c black -i black
n -t * -a 4 -s 4 -S UP -v circle -c black -i black
n -t * -a 5 -s 5 -S UP -v circle -c black -i black
n -t * -a 6 -s 6 -S UP -v circle -c black -i black
n -t * -a 7 -s 7 -S UP -v circle -c black -i black
n -t * -a 8 -s 8 -S UP -v circle -c black -i black
n -t * -a 9 -s 9 -S UP -v circle -c black -i black
n -t * -a 10 -s 10 -S UP -v circle -c black -i black
n -t * -a 11 -s 11 -S UP -v circle -c black -i black
l -t * -s 0 -d 1 -S UP -r 1500000 -D 0.040000000000000001 -c black -o left
l -t * -s 0 -d 2 -S UP -r 10000000 -D 0.02 -c black -o up
l -t * -s 0 -d 3 -S UP -r 10000000 -D 0.02 -c black -o right-up
l -t * -s 0 -d 4 -S UP -r 10000000 -D 0.02 -c black -o right
l -t * -s 0 -d 5 -S UP -r 10000000 -D 0.02 -c black -o right-down
l -t * -s 0 -d 6 -S UP -r 10000000 -D 0.02 -c black -o down
l -t * -s 1 -d 7 -S UP -r 10000000 -D 0.02 -c black -o up
l -t * -s 1 -d 8 -S UP -r 10000000 -D 0.02 -c black -o left-up
l -t * -s 1 -d 9 -S UP -r 10000000 -D 0.02 -c black -o left
l -t * -s 1 -d 10 -S UP -r 10000000 -D 0.02 -c black -o left-down
l -t * -s 1 -d 11 -S UP -r 10000000 -D 0.02 -c black -o down
+ -t 0.1 -s 2 -d 0 -p tcp -e 40 -c 1 -i 0 -a 1 -x {2.0 7.0 0 ------- null}
- -t 0.1 -s 2 -d 0 -p tcp -e 40 -c 1 -i 0 -a 1 -x {2.0 7.0 0 ------- null}
h -t 0.1 -s 2 -d 0 -p tcp -e 40 -c 1 -i 0 -a 1 -x {2.0 7.0 -1 ------- null}
r -t 0.120032 -s 2 -d 0 -p tcp -e 40 -c 1 -i 0 -a 1 -x {2.0 7.0 0 ------- null}
+ -t 0.120032 -s 0 -d 1 -p tcp -e 40 -c 1 -i 0 -a 1 -x {2.0 7.0 0 ------- null}
- -t 0.120032 -s 0 -d 1 -p tcp -e 40 -c 1 -i 0 -a 1 -x {2.0 7.0 0 ------- null}
h -t 0.120032 -s 0 -d 1 -p tcp -e 40 -c 1 -i 0 -a 1 -x {2.0 7.0 -1 ------- null}
r -t 0.160245333333333 -s 0 -d 1 -p tcp -e 40 -c 1 -i 0 -a 1 -x {2.0 7.0 0 ------- null}
+ -t 0.160245333333333 -s 1 -d 7 -p tcp -e 40 -c 1 -i 0 -a 1 -x {2.0 7.0 0 ------- null}
- -t 0.160245333333333 -s 1 -d 7 -p tcp -e 40 -c 1 -i 0 -a 1 -x {2.0 7.0 0 ------- null}
h -t 0.160245333333333 -s 1 -d 7 -p tcp -e 40 -c 1 -i 0 -a 1 -x {2.0 7.0 -1 ------- null}
r -t 0.180277333333333 -s 1 -d 7 -p tcp -e 40 -c 1 -i 0 -a 1 -x {2.0 7.0 0 ------- null}
+ -t 0.180277333333333 -s 7 -d 1 -p ack -e 40 -c 1 -i 1 -a 1 -x {7.0 2.0 0 ------- null}
- -t 0.180277333333333 -s 7 -d 1 -p ack -e 40 -c 1 -i 1 -a 1 -x {7.0 2.0 0 ------- null}
h -t 0.180277333333333 -s 7 -d 1 -p ack -e 40 -c 1 -i 1 -a 1 -x {7.0 2.0 -1 ------- null}
+ -t 0.2 -s 4 -d 0 -p tcp -e 40 -c 2 -i 2 -a 2 -x {4.0 10.0 0 ------- null}
- -t 0.2 -s 4 -d 0 -p tcp -e 40 -c 2 -i 2 -a 2 -x {4.0 10.0 0 ------- null}
h -t 0.2 -s 4 -d 0 -p tcp -e 40 -c 2 -i 2 -a 2 -x {4.0 10.0 -1 ------- null}
r -t 0.200309333333333 -s 7 -d 1 -p ack -e 40 -c 1 -i 1 -a 1 -x {7.0 2.0 0 ------- null}
+ -t 0.200309333333333 -s 1 -d 0 -p ack -e 40 -c 1 -i 1 -a 1 -x {7.0 2.0 0 ------- null}
- -t 0.200309333333333 -s 1 -d 0 -p ack -e 40 -c 1 -i 1 -a 1 -x {7.0 2.0 0 ------- null}
h -t 0.200309333333333 -s 1 -d 0 -p ack -e 40 -c 1 -i 1 -a 1 -x {7.0 2.0 -1 ------- null}
r -t 0.220032 -s 4 -d 0 -p tcp -e 40 -c 2 -i 2 -a 2 -x {4.0 10.0 0 ------- null}
+ -t 0.220032 -s 0 -d 1 -p tcp -e 40 -c 2 -i 2 -a 2 -x {4.0 10.0 0 ------- null}
- -t 0.220032 -s 0 -d 1 -p tcp -e 40 -c 2 -i 2 -a 2 -x {4.0 10.0 0 ------- null}
h -t 0.220032 -s 0 -d 1 -p tcp -e 40 -c 2 -i 2 -a 2 -x {4.0 10.0 -1 ------- null}
r -t 0.240522666666667 -s 1 -d 0 -p ack -e 40 -c 1 -i 1 -a 1 -x {7.0 2.0 0 ------- null}
+ -t 0.240522666666667 -s 0 -d 2 -p ack -e 40 -c 1 -i 1 -a 1 -x {7.0 2.0 0 ------- null}
- -t 0.240522666666667 -s 0 -d 2 -p ack -e 40 -c 1 -i 1 -a 1 -x {7.0 2.0 0 ------- null}
h -t 0.240522666666667 -s 0 -d 2 -p ack -e 40 -c 1 -i 1 -a 1 -x {7.0 2.0 -1 ------- null}
r -t 0.260245333333333 -s 0 -d 1 -p tcp -e 40 -c 2 -i 2 -a 2 -x {4.0 10.0 0 ------- null}
+ -t 0.260245333333333 -s 1 -d 10 -p tcp -e 40 -c 2 -i 2 -a 2 -x {4.0 10.0 0 ------- null}
- -t 0.260245333333333 -s 1 -d 10 -p tcp -e 40 -c 2 -i 2 -a 2 -x {4.0 10.0 0 ------- null}
h -t 0.260245333333333 -s 1 -d 10 -p tcp -e 40 -c 2 -i 2 -a 2 -x {4.0 10.0 -1 ------- null}
r -t 0.260554666666667 -s 0 -d 2 -p ack -e 40 -c 1 -i 1 -a 1 -x {7.0 2.0 0 ------- null}
+ -t 0.260554666666667 -s 2 -d 0 -p tcp -e 1040 -c 1 -i 3 -a 1 -x {2.0 7.0 1 ------- null}
- -t 0.260554666666667 -s 2 -d 0 -p tcp -e 1040 -c 1 -i 3 -a 1 -x {2.0 7.0 1 ------- null}
h -t 0.260554666666667 -s 2 -d 0 -p tcp -e 1040 -c 1 -i 3 -a 1 -x {2.0 7.0 -1 ------- null}
r -t 0.280277333333333 -s 1 -d 10 -p tcp -e 40 -c 2 -i 2 -a 2 -x {4.0 10.0 0 ------- null}
+ -t 0.280277333333333 -s 10 -d 1 -p ack -e 40 -c 2 -i 4 -a 2 -x {10.0 4.0 0 ------- null}
- -t 0.280277333333333 -s 10 -d 1 -p ack -e 40 -c 2 -i 4 -a 2 -x {10.0 4.0 0 ------- null}
h -t 0.280277333333333 -s 10 -d 1 -p ack -e 40 -c 2 -i 4 -a 2 -x {10.0 4.0 -1 ------- null}
r -t 0.281386666666667 -s 2 -d 0 -p tcp -e 1040 -c 1 -i 3 -a 1 -x {2.0 7.0 1 ------- null}
+ -t 0.281386666666667 -s 0 -d 1 -p tcp -e 1040 -c 1 -i 3 -a 1 -x {2.0 7.0 1 ------- null}
- -t 0.281386666666667 -s 0 -d 1 -p tcp -e 1040 -c 1 -i 3 -a 1 -x {2.0 7.0 1 ------- null}
h -t 0.281386666666667 -s 0 -d 1 -p tcp -e 1040 -c 1 -i 3 -a 1 -x {2.0 7.0 -1 ------- null}
r -t 0.300309333333333 -s 10 -d 1 -p ack -e 40 -c 2 -i 4 -a 2 -x {10.0 4.0 0 ------- null}
+ -t 0.300309333333333 -s 1 -d 0 -p ack -e 40 -c 2 -i 4 -a 2 -x {10.0 4.0 0 ------- null}
- -t 0.300309333333333 -s 1 -d 0 -p ack -e 40 -c 2 -i 4 -a 2 -x {10.0 4.0 0 ------- null}
h -t 0.300309333333333 -s 1 -d 0 -p ack -e 40 -c 2 -i 4 -a 2 -x {10.0 4.0 -1 ------- null}
r -t 0.326933333333333 -s 0 -d 1 -p tcp -e 1040 -c 1 -i 3 -a 1 -x {2.0 7.0 1 ------- null}
+ -t 0.326933333333333 -s 1 -d 7 -p tcp -e 1040 -c 1 -i 3 -a 1 -x {2.0 7.0 1 ------- null}
- -t 0.326933333333333 -s 1 -d 7 -p tcp -e 1040 -c 1 -i 3 -a 1 -x {2.0 7.0 1 ------- null}
h -t 0.326933333333333 -s 1 -d 7 -p tcp -e 1040 -c 1 -i 3 -a 1 -x {2.0 7.0 -1 ------- null}
r -t 0.340522666666667 -s 1 -d 0 -p ack -e 40 -c 2 -i 4 -a 2 -x {10.0 4.0 0 ------- null}
+ -t 0.340522666666667 -s 0 -d 4 -p ack -e 40 -c 2 -i 4 -a 2 -x {10.0 4.0 0 ------- null}
- -t 0.340522666666667 -s 0 -d 4 -p ack -e 40 -c 2 -i 4 -a 2 -x {10.0 4.0 0 ------- null}
h -t 0.340522666666667 -s 0 -d 4 -p ack -e 40 -c 2 -i 4 -a 2 -x {10.0 4.0 -1 ------- null}
r -t 0.347765333333333 -s 1 -d 7 -p tcp -e 1040 -c 1 -i 3 -a 1 -x {2.0 7.0 1 ------- null}
+ -t 0.347765333333333 -s 7 -d 1 -p ack -e 40 -c 1 -i 5 -a 1 -x {7.0 2.0 1 ------- null}
- -t 0.347765333333333 -s 7 -d 1 -p ack -e 40 -c 1 -i 5 -a 1 -x {7.0 2.0 1 ------- null}
h -t 0.347765333333333 -s 7 -d 1 -p ack -e 40 -c 1 -i 5 -a 1 -x {7.0 2.0 -1 ------- null}
r -t 0.360554666666667 -s 0 -d 4 -p ack -e 40 -c 2 -i 4 -a 2 -x {10.0 4.0 0 ------- null}
+ -t 0.360554666666667 -s 4 -d 0 -p tcp -e 1040 -c 2 -i 6 -a 2 -x {4.0 10.0 1 ------- null}
- -t 0.360554666666667 -s 4 -d 0 -p tcp -e 1040 -c 2 -i 6 -a 2 -x {4.0 10.0 1 ------- null}
h -t 0.360554666666667 -s 4 -d 0 -p tcp -e 1040 -c 2 -i 6 -a 2 -x {4.0 10.0 -1 ------- null}
r -t 0.367797333333333 -s 7 -d 1 -p ack -e 40 -c 1 -i 5 -a 1 -x {7.0 2.0 1 ------- null}
+ -t 0.367797333333333 -s 1 -d 0 -p ack -e 40 -c 1 -i 5 -a 1 -x {7.0 2.0 1 ------- null}
- -t 0.367797333333333 -s 1 -d 0 -p ack -e 40 -c 1 -i 5 -a 1 -x {7.0 2.0 1 ------- null}
h -t 0.367797333333333 -s 1 -d 0 -p ack -e 40 -c 1 -i 5 -a 1 -x {7.0 2.0 -1 ------- null}
r -t 0.381386666666667 -s 4 -d 0 -p tcp -e 1040 -c 2 -i 6 -a 2 -x {4.0 10.0 1 ------- null}
+ -t 0.381386666666667 -s 0 -d 1 -p tcp -e 1040 -c 2 -i 6 -a 2 -x {4.0 10.0 1 ------- null}
- -t 0.381386666666667 -s 0 -d 1 -p tcp -e 1040 -c 2 -i 6 -a 2 -x {4.0 10.0 1 ------- null}
h -t 0.381386666666667 -s 0 -d 1 -p tcp -e 1040 -c 2 -i 6 -a 2 -x {4.0 10.0 -1 ------- null}
r -t 0.408010666666667 -s 1 -d 0 -p ack -e 40 -c 1 -i 5 -a 1 -x {7.0 2.0 1 ------- null}
+ -t 0.408010666666667 -s 0 -d 2 -p ack -e 40 -c 1 -i 5 -a 1 -x {7.0 2.0 1 ------- null}
- -t 0.408010666666667 -s 0 -d 2 -p ack -e 40 -c 1 -i 5 -a 1 -x {7.0 2.0 1 ------- null}
h -t 0.408010666666667 -s 0 -d 2 -p ack -e 40 -c 1 -i 5 -a 1 -x {7.0 2.0 -1 ------- null}
r -t 0.426933333333333 -s 0 -d 1 -p tcp -e 1040 -c 2 -i 6 -a 2 -x {4.0 10.0 1 ------- null}
+ -t 0.426933333333333 -s 1 -d 10 -p tcp -e 1040 -c 2 -i 6 -a 2 -x {4.0 10.0 1 ------- null}
- -t 0.426933333333333 -s 1 -d 10 -p tcp -e 1040 -c 2 -i 6 -a 2 -x {4.0 10.0 1 ------- null}
h -t 0.426933333333333 -s 1 -d 10 -p tcp -e 1040 -c 2 -i 6 -a 2 -x {4.0 10.0 -1 ------- null}
r -t 0.428042666666667 -s 0 -d 2 -p ack -e 40 -c 1 -i 5 -a 1 -x {7.0 2.0 1 ------- null}
+ -t 0.428042666666667 -s 7 -d 1 -p tcp -e 40 -c 1 -i 7 -a 1 -x {7.0 2.0 0 ------- null}
- -t 0.428042666666667 -s 7 -d 1 -p tcp -e 40 -c 1 -i 7 -a 1 -x {7.0 2.0 0 ------- null}
h -t 0.428042666666667 -s 7 -d 1 -p tcp -e 40 -c 1 -i 7 -a 1 -x {7.0 2.0 -1 ------- null}
r -t 0.447765333333333 -s 1 -d 10 -p tcp -e 1040 -c 2 -i 6 -a 2 -x {4.0 10.0 1 ------- null}
+ -t 0.447765333333333 -s 10 -d 1 -p ack -e 40 -c 2 -i 8 -a 2 -x {10.0 4.0 1 ------- null}
- -t 0.447765333333333 -s 10 -d 1 -p ack -e 40 -c 2 -i 8 -a 2 -x {10.0 4.0 1 ------- null}
h -t 0.447765333333333 -s 10 -d 1 -p ack -e 40 -c 2 -i 8 -a 2 -x {10.0 4.0 -1 ------- null}
r -t 0.448074666666667 -s 7 -d 1 -p tcp -e 40 -c 1 -i 7 -a 1 -x {7.0 2.0 0 ------- null}
+ -t 0.448074666666667 -s 1 -d 0 -p tcp -e 40 -c 1 -i 7 -a 1 -x {7.0 2.0 0 ------- null}
- -t 0.448074666666667 -s 1 -d 0 -p tcp -e 40 -c 1 -i 7 -a 1 -x {7.0 2.0 0 ------- null}
h -t 0.448074666666667 -s 1 -d 0 -p tcp -e 40 -c 1 -i 7 -a 1 -x {7.0 2.0 -1 ------- null}
r -t 0.467797333333333 -s 10 -d 1 -p ack -e 40 -c 2 -i 8 -a 2 -x {10.0 4.0 1 ------- null}
+ -t 0.467797333333333 -s 1 -d 0 -p ack -e 40 -c 2 -i 8 -a 2 -x {10.0 4.0 1 ------- null}
- -t 0.467797333333333 -s 1 -d 0 -p ack -e 40 -c 2 -i 8 -a 2 -x {10.0 4.0 1 ------- null}
h -t 0.467797333333333 -s 1 -d 0 -p ack -e 40 -c 2 -i 8 -a 2 -x {10.0 4.0 -1 ------- null}
r -t 0.488288 -s 1 -d 0 -p tcp -e 40 -c 1 -i 7 -a 1 -x {7.0 2.0 0 ------- null}
+ -t 0.488288 -s 0 -d 2 -p tcp -e 40 -c 1 -i 7 -a 1 -x {7.0 2.0 0 ------- null}
- -t 0.488288 -s 0 -d 2 -p tcp -e 40 -c 1 -i 7 -a 1 -x {7.0 2.0 0 ------- null}
h -t 0.488288 -s 0 -d 2 -p tcp -e 40 -c 1 -i 7 -a 1 -x {7.0 2.0 -1 ------- null}
r -t 0.508010666666667 -s 1 -d 0 -p ack -e 40 -c 2 -i 8 -a 2 -x {10.0 4.0 1 ------- null}
+ -t 0.508010666666667 -s 0 -d 4 -p ack -e 40 -c 2 -i 8 -a 2 -x {10.0 4.0 1 ------- null}
- -t 0.508010666666667 -s 0 -d 4 -p ack -e 40 -c 2 -i 8 -a 2 -x {10.0 4.0 1 ------- null}
h -t 0.508010666666667 -s 0 -d 4 -p ack -e 40 -c 2 -i 8 -a 2 -x {10.0 4.0 -1 ------- null}
r -t 0.50832 -s 0 -d 2 -p tcp -e 40 -c 1 -i 7 -a 1 -x {7.0 2.0 0 ------- null}
+ -t 0.50832 -s 2 -d 0 -p ack -e 40 -c 1 -i 9 -a 1 -x {2.0 7.0 0 ------- null}
- -t 0.50832 -s 2 -d 0 -p ack -e 40 -c 1 -i 9 -a 1 -x {2.0 7.0 0 ------- null}
h -t 0.50832 -s 2 -d 0 -p ack -e 40 -c 1 -i 9 -a 1 -x {2.0 7.0 -1 ------- null}
r -t 0.528042666666667 -s 0 -d 4 -p ack -e 40 -c 2 -i 8 -a 2 -x {10.0 4.0 1 ------- null}
+ -t 0.528042666666667 -s 10 -d 1 -p tcp -e 40 -c 2 -i 10 -a 2 -x {10.0 4.0 0 ------- null}
- -t 0.528042666666667 -s 10 -d 1 -p tcp -e 40 -c 2 -i 10 -a 2 -x {10.0 4.0 0 ------- null}
h -t 0.528042666666667 -s 10 -d 1 -p tcp -e 40 -c 2 -i 10 -a 2 -x {10.0 4.0 -1 ------- null}
r -t 0.528352 -s 2 -d 0 -p ack -e 40 -c 1 -i 9 -a 1 -x {2.0 7.0 0 ------- null}
+ -t 0.528352 -s 0 -d 1 -p ack -e 40 -c 1 -i 9 -a 1 -x {2.0 7.0 0 ------- null}
- -t 0.528352 -s 0 -d 1 -p ack -e 40 -c 1 -i 9 -a 1 -x {2.0 7.0 0 ------- null}
h -t 0.528352 -s 0 -d 1 -p ack -e 40 -c 1 -i 9 -a 1 -x {2.0 7.0 -1 ------- null}
r -t 0.548074666666667 -s 10 -d 1 -p tcp -e 40 -c 2 -i 10 -a 2 -x {10.0 4.0 0 ------- null}
+ -t 0.548074666666667 -s 1 -d 0 -p tcp -e 40 -c 2 -i 10 -a 2 -x {10.0 4.0 0 ------- null}
- -t 0.548074666666667 -s 1 -d 0 -p tcp -e 40 -c 2 -i 10 -a 2 -x {10.0 4.0 0 ------- null}
h -t 0.548074666666667 -s 1 -d 0 -p tcp -e 40 -c 2 -i 10 -a 2 -x {10.0 4.0 -1 ------- null}
r -t 0.568565333333333 -s 0 -d 1 -p ack -e 40 -c 1 -i 9 -a 1 -x {2.0 7.0 0 ------- null}
+ -t 0.568565333333333 -s 1 -d 7 -p ack -e 40 -c 1 -i 9 -a 1 -x {2.0 7.0 0 ------- null}
- -t 0.568565333333333 -s 1 -d 7 -p ack -e 40 -c 1 -i 9 -a 1 -x {2.0 7.0 0 ------- null}
h -t 0.568565333333333 -s 1 -d 7 -p ack -e 40 -c 1 -i 9 -a 1 -x {2.0 7.0 -1 ------- null}
r -t 0.588288 -s 1 -d 0 -p tcp -e 40 -c 2 -i 10 -a 2 -x {10.0 4.0 0 ------- null}
+ -t 0.588288 -s 0 -d 4 -p tcp -e 40 -c 2 -i 10 -a 2 -x {10.0 4.0 0 ------- null}
- -t 0.588288 -s 0 -d 4 -p tcp -e 40 -c 2 -i 10 -a 2 -x {10.0 4.0 0 ------- null}
h -t 0.588288 -s 0 -d 4 -p tcp -e 40 -c 2 -i 10 -a 2 -x {10.0 4.0 -1 ------- null}
r -t 0.588597333333333 -s 1 -d 7 -p ack -e 40 -c 1 -i 9 -a 1 -x {2.0 7.0 0 ------- null}
+ -t 0.588597333333333 -s 7 -d 1 -p tcp -e 1040 -c 1 -i 11 -a 1 -x {7.0 2.0 1 ------- null}
- -t 0.588597333333333 -s 7 -d 1 -p tcp -e 1040 -c 1 -i 11 -a 1 -x {7.0 2.0 1 ------- null}
h -t 0.588597333333333 -s 7 -d 1 -p tcp -e 1040 -c 1 -i 11 -a 1 -x {7.0 2.0 -1 ------- null}
+ -t 0.588597333333333 -s 7 -d 1 -p tcp -e 1040 -c 1 -i 12 -a 1 -x {7.0 2.0 2 ------- null}
- -t 0.589429333333333 -s 7 -d 1 -p tcp -e 1040 -c 1 -i 12 -a 1 -x {7.0 2.0 2 ------- null}
h -t 0.589429333333333 -s 7 -d 1 -p tcp -e 1040 -c 1 -i 12 -a 1 -x {7.0 2.0 -1 ------- null}
r -t 0.60832 -s 0 -d 4 -p tcp -e 40 -c 2 -i 10 -a 2 -x {10.0 4.0 0 ------- null}
+ -t 0.60832 -s 4 -d 0 -p ack -e 40 -c 2 -i 13 -a 2 -x {4.0 10.0 0 ------- null}
- -t 0.60832 -s 4 -d 0 -p ack -e 40 -c 2 -i 13 -a 2 -x {4.0 10.0 0 ------- null}
h -t 0.60832 -s 4 -d 0 -p ack -e 40 -c 2 -i 13 -a 2 -x {4.0 10.0 -1 ------- null}
r -t 0.609429333333333 -s 7 -d 1 -p tcp -e 1040 -c 1 -i 11 -a 1 -x {7.0 2.0 1 ------- null}
+ -t 0.609429333333333 -s 1 -d 0 -p tcp -e 1040 -c 1 -i 11 -a 1 -x {7.0 2.0 1 ------- null}
- -t 0.609429333333333 -s 1 -d 0 -p tcp -e 1040 -c 1 -i 11 -a 1 -x {7.0 2.0 1 ------- null}
h -t 0.609429333333333 -s 1 -d 0 -p tcp -e 1040 -c 1 -i 11 -a 1 -x {7.0 2.0 -1 ------- null}
r -t 0.610261333333333 -s 7 -d 1 -p tcp -e 1040 -c 1 -i 12 -a 1 -x {7.0 2.0 2 ------- null}
+ -t 0.610261333333333 -s 1 -d 0 -p tcp -e 1040 -c 1 -i 12 -a 1 -x {7.0 2.0 2 ------- null}
- -t 0.614976 -s 1 -d 0 -p tcp -e 1040 -c 1 -i 12 -a 1 -x {7.0 2.0 2 ------- null}
h -t 0.614976 -s 1 -d 0 -p tcp -e 1040 -c 1 -i 12 -a 1 -x {7.0 2.0 -1 ------- null}
r -t 0.628352 -s 4 -d 0 -p ack -e 40 -c 2 -i 13 -a 2 -x {4.0 10.0 0 ------- null}
+ -t 0.628352 -s 0 -d 1 -p ack -e 40 -c 2 -i 13 -a 2 -x {4.0 10.0 0 ------- null}
- -t 0.628352 -s 0 -d 1 -p ack -e 40 -c 2 -i 13 -a 2 -x {4.0 10.0 0 ------- null}
h -t 0.628352 -s 0 -d 1 -p ack -e 40 -c 2 -i 13 -a 2 -x {4.0 10.0 -1 ------- null}
r -t 0.654976 -s 1 -d 0 -p tcp -e 1040 -c 1 -i 11 -a 1 -x {7.0 2.0 1 ------- null}
+ -t 0.654976 -s 0 -d 2 -p tcp -e 1040 -c 1 -i 11 -a 1 -x {7.0 2.0 1 ------- null}
- -t 0.654976 -s 0 -d 2 -p tcp -e 1040 -c 1 -i 11 -a 1 -x {7.0 2.0 1 ------- null}
h -t 0.654976 -s 0 -d 2 -p tcp -e 1040 -c 1 -i 11 -a 1 -x {7.0 2.0 -1 ------- null}
r -t 0.660522666666667 -s 1 -d 0 -p tcp -e 1040 -c 1 -i 12 -a 1 -x {7.0 2.0 2 ------- null}
+ -t 0.660522666666667 -s 0 -d 2 -p tcp -e 1040 -c 1 -i 12 -a 1 -x {7.0 2.0 2 ------- null}
- -t 0.660522666666667 -s 0 -d 2 -p tcp -e 1040 -c 1 -i 12 -a 1 -x {7.0 2.0 2 ------- null}
h -t 0.660522666666667 -s 0 -d 2 -p tcp -e 1040 -c 1 -i 12 -a 1 -x {7.0 2.0 -1 ------- null}
r -t 0.668565333333334 -s 0 -d 1 -p ack -e 40 -c 2 -i 13 -a 2 -x {4.0 10.0 0 ------- null}
+ -t 0.668565333333334 -s 1 -d 10 -p ack -e 40 -c 2 -i 13 -a 2 -x {4.0 10.0 0 ------- null}
- -t 0.668565333333334 -s 1 -d 10 -p ack -e 40 -c 2 -i 13 -a 2 -x {4.0 10.0 0 ------- null}
h -t 0.668565333333334 -s 1 -d 10 -p ack -e 40 -c 2 -i 13 -a 2 -x {4.0 10.0 -1 ------- null}
r -t 0.675808 -s 0 -d 2 -p tcp -e 1040 -c 1 -i 11 -a 1 -x {7.0 2.0 1 ------- null}
+ -t 0.675808 -s 2 -d 0 -p ack -e 40 -c 1 -i 14 -a 1 -x {2.0 7.0 1 ------- null}
- -t 0.675808 -s 2 -d 0 -p ack -e 40 -c 1 -i 14 -a 1 -x {2.0 7.0 1 ------- null}
h -t 0.675808 -s 2 -d 0 -p ack -e 40 -c 1 -i 14 -a 1 -x {2.0 7.0 -1 ------- null}
r -t 0.681354666666667 -s 0 -d 2 -p tcp -e 1040 -c 1 -i 12 -a 1 -x {7.0 2.0 2 ------- null}
+ -t 0.681354666666667 -s 2 -d 0 -p ack -e 40 -c 1 -i 15 -a 1 -x {2.0 7.0 2 ------- null}
- -t 0.681354666666667 -s 2 -d 0 -p ack -e 40 -c 1 -i 15 -a 1 -x {2.0 7.0 2 ------- null}
h -t 0.681354666666667 -s 2 -d 0 -p ack -e 40 -c 1 -i 15 -a 1 -x {2.0 7.0 -1 ------- null}
r -t 0.688597333333334 -s 1 -d 10 -p ack -e 40 -c 2 -i 13 -a 2 -x {4.0 10.0 0 ------- null}
+ -t 0.688597333333334 -s 10 -d 1 -p tcp -e 1040 -c 2 -i 16 -a 2 -x {10.0 4.0 1 ------- null}
- -t 0.688597333333334 -s 10 -d 1 -p tcp -e 1040 -c 2 -i 16 -a 2 -x {10.0 4.0 1 ------- null}
h -t 0.688597333333334 -s 10 -d 1 -p tcp -e 1040 -c 2 -i 16 -a 2 -x {10.0 4.0 -1 ------- null}
+ -t 0.688597333333334 -s 10 -d 1 -p tcp -e 1040 -c 2 -i 17 -a 2 -x {10.0 4.0 2 ------- null}
- -t 0.689429333333334 -s 10 -d 1 -p tcp -e 1040 -c 2 -i 17 -a 2 -x {10.0 4.0 2 ------- null}
h -t 0.689429333333334 -s 10 -d 1 -p tcp -e 1040 -c 2 -i 17 -a 2 -x {10.0 4.0 -1 ------- null}
r -t 0.69584 -s 2 -d 0 -p ack -e 40 -c 1 -i 14 -a 1 -x {2.0 7.0 1 ------- null}
+ -t 0.69584 -s 0 -d 1 -p ack -e 40 -c 1 -i 14 -a 1 -x {2.0 7.0 1 ------- null}
- -t 0.69584 -s 0 -d 1 -p ack -e 40 -c 1 -i 14 -a 1 -x {2.0 7.0 1 ------- null}
h -t 0.69584 -s 0 -d 1 -p ack -e 40 -c 1 -i 14 -a 1 -x {2.0 7.0 -1 ------- null}
r -t 0.701386666666667 -s 2 -d 0 -p ack -e 40 -c 1 -i 15 -a 1 -x {2.0 7.0 2 ------- null}
+ -t 0.701386666666667 -s 0 -d 1 -p ack -e 40 -c 1 -i 15 -a 1 -x {2.0 7.0 2 ------- null}
- -t 0.701386666666667 -s 0 -d 1 -p ack -e 40 -c 1 -i 15 -a 1 -x {2.0 7.0 2 ------- null}
h -t 0.701386666666667 -s 0 -d 1 -p ack -e 40 -c 1 -i 15 -a 1 -x {2.0 7.0 -1 ------- null}
r -t 0.709429333333334 -s 10 -d 1 -p tcp -e 1040 -c 2 -i 16 -a 2 -x {10.0 4.0 1 ------- null}
+ -t 0.709429333333334 -s 1 -d 0 -p tcp -e 1040 -c 2 -i 16 -a 2 -x {10.0 4.0 1 ------- null}
- -t 0.709429333333334 -s 1 -d 0 -p tcp -e 1040 -c 2 -i 16 -a 2 -x {10.0 4.0 1 ------- null}
h -t 0.709429333333334 -s 1 -d 0 -p tcp -e 1040 -c 2 -i 16 -a 2 -x {10.0 4.0 -1 ------- null}
r -t 0.710261333333334 -s 10 -d 1 -p tcp -e 1040 -c 2 -i 17 -a 2 -x {10.0 4.0 2 ------- null}
+ -t 0.710261333333334 -s 1 -d 0 -p tcp -e 1040 -c 2 -i 17 -a 2 -x {10.0 4.0 2 ------- null}
- -t 0.714976 -s 1 -d 0 -p tcp -e 1040 -c 2 -i 17 -a 2 -x {10.0 4.0 2 ------- null}
h -t 0.714976 -s 1 -d 0 -p tcp -e 1040 -c 2 -i 17 -a 2 -x {10.0 4.0 -1 ------- null}
r -t 0.736053333333333 -s 0 -d 1 -p ack -e 40 -c 1 -i 14 -a 1 -x {2.0 7.0 1 ------- null}
+ -t 0.736053333333333 -s 1 -d 7 -p ack -e 40 -c 1 -i 14 -a 1 -x {2.0 7.0 1 ------- null}
- -t 0.736053333333333 -s 1 -d 7 -p ack -e 40 -c 1 -i 14 -a 1 -x {2.0 7.0 1 ------- null}
h -t 0.736053333333333 -s 1 -d 7 -p ack -e 40 -c 1 -i 14 -a 1 -x {2.0 7.0 -1 ------- null}
r -t 0.7416 -s 0 -d 1 -p ack -e 40 -c 1 -i 15 -a 1 -x {2.0 7.0 2 ------- null}
+ -t 0.7416 -s 1 -d 7 -p ack -e 40 -c 1 -i 15 -a 1 -x {2.0 7.0 2 ------- null}
- -t 0.7416 -s 1 -d 7 -p ack -e 40 -c 1 -i 15 -a 1 -x {2.0 7.0 2 ------- null}
h -t 0.7416 -s 1 -d 7 -p ack -e 40 -c 1 -i 15 -a 1 -x {2.0 7.0 -1 ------- null}
r -t 0.754976 -s 1 -d 0 -p tcp -e 1040 -c 2 -i 16 -a 2 -x {10.0 4.0 1 ------- null}
+ -t 0.754976 -s 0 -d 4 -p tcp -e 1040 -c 2 -i 16 -a 2 -x {10.0 4.0 1 ------- null}
- -t 0.754976 -s 0 -d 4 -p tcp -e 1040 -c 2 -i 16 -a 2 -x {10.0 4.0 1 ------- null}
h -t 0.754976 -s 0 -d 4 -p tcp -e 1040 -c 2 -i 16 -a 2 -x {10.0 4.0 -1 ------- null}
r -t 0.756085333333333 -s 1 -d 7 -p ack -e 40 -c 1 -i 14 -a 1 -x {2.0 7.0 1 ------- null}
+ -t 0.756085333333333 -s 7 -d 1 -p tcp -e 1040 -c 1 -i 18 -a 1 -x {7.0 2.0 3 ------- null}
- -t 0.756085333333333 -s 7 -d 1 -p tcp -e 1040 -c 1 -i 18 -a 1 -x {7.0 2.0 3 ------- null}
h -t 0.756085333333333 -s 7 -d 1 -p tcp -e 1040 -c 1 -i 18 -a 1 -x {7.0 2.0 -1 ------- null}
+ -t 0.756085333333333 -s 7 -d 1 -p tcp -e 1040 -c 1 -i 19 -a 1 -x {7.0 2.0 4 ------- null}
- -t 0.756917333333333 -s 7 -d 1 -p tcp -e 1040 -c 1 -i 19 -a 1 -x {7.0 2.0 4 ------- null}
h -t 0.756917333333333 -s 7 -d 1 -p tcp -e 1040 -c 1 -i 19 -a 1 -x {7.0 2.0 -1 ------- null}
r -t 0.760522666666667 -s 1 -d 0 -p tcp -e 1040 -c 2 -i 17 -a 2 -x {10.0 4.0 2 ------- null}
+ -t 0.760522666666667 -s 0 -d 4 -p tcp -e 1040 -c 2 -i 17 -a 2 -x {10.0 4.0 2 ------- null}
- -t 0.760522666666667 -s 0 -d 4 -p tcp -e 1040 -c 2 -i 17 -a 2 -x {10.0 4.0 2 ------- null}
h -t 0.760522666666667 -s 0 -d 4 -p tcp -e 1040 -c 2 -i 17 -a 2 -x {10.0 4.0 -1 ------- null}
r -t 0.761632 -s 1 -d 7 -p ack -e 40 -c 1 -i 15 -a 1 -x {2.0 7.0 2 ------- null}
+ -t 0.761632 -s 7 -d 1 -p tcp -e 1040 -c 1 -i 20 -a 1 -x {7.0 2.0 5 ------- null}
- -t 0.761632 -s 7 -d 1 -p tcp -e 1040 -c 1 -i 20 -a 1 -x {7.0 2.0 5 ------- null}
h -t 0.761632 -s 7 -d 1 -p tcp -e 1040 -c 1 -i 20 -a 1 -x {7.0 2.0 -1 ------- null}
+ -t 0.761632 -s 7 -d 1 -p tcp -e 1040 -c 1 -i 21 -a 1 -x {7.0 2.0 6 ------- null}
- -t 0.762464 -s 7 -d 1 -p tcp -e 1040 -c 1 -i 21 -a 1 -x {7.0 2.0 6 ------- null}
h -t 0.762464 -s 7 -d 1 -p tcp -e 1040 -c 1 -i 21 -a 1 -x {7.0 2.0 -1 ------- null}
r -t 0.775808 -s 0 -d 4 -p tcp -e 1040 -c 2 -i 16 -a 2 -x {10.0 4.0 1 ------- null}
+ -t 0.775808 -s 4 -d 0 -p ack -e 40 -c 2 -i 22 -a 2 -x {4.0 10.0 1 ------- null}
- -t 0.775808 -s 4 -d 0 -p ack -e 40 -c 2 -i 22 -a 2 -x {4.0 10.0 1 ------- null}
h -t 0.775808 -s 4 -d 0 -p ack -e 40 -c 2 -i 22 -a 2 -x {4.0 10.0 -1 ------- null}
r -t 0.776917333333333 -s 7 -d 1 -p tcp -e 1040 -c 1 -i 18 -a 1 -x {7.0 2.0 3 ------- null}
+ -t 0.776917333333333 -s 1 -d 0 -p tcp -e 1040 -c 1 -i 18 -a 1 -x {7.0 2.0 3 ------- null}
- -t 0.776917333333333 -s 1 -d 0 -p tcp -e 1040 -c 1 -i 18 -a 1 -x {7.0 2.0 3 ------- null}
h -t 0.776917333333333 -s 1 -d 0 -p tcp -e 1040 -c 1 -i 18 -a 1 -x {7.0 2.0 -1 ------- null}
r -t 0.777749333333333 -s 7 -d 1 -p tcp -e 1040 -c 1 -i 19 -a 1 -x {7.0 2.0 4 ------- null}
+ -t 0.777749333333333 -s 1 -d 0 -p tcp -e 1040 -c 1 -i 19 -a 1 -x {7.0 2.0 4 ------- null}
r -t 0.781354666666667 -s 0 -d 4 -p tcp -e 1040 -c 2 -i 17 -a 2 -x {10.0 4.0 2 ------- null}
+ -t 0.781354666666667 -s 4 -d 0 -p ack -e 40 -c 2 -i 23 -a 2 -x {4.0 10.0 2 ------- null}
- -t 0.781354666666667 -s 4 -d 0 -p ack -e 40 -c 2 -i 23 -a 2 -x {4.0 10.0 2 ------- null}
h -t 0.781354666666667 -s 4 -d 0 -p ack -e 40 -c 2 -i 23 -a 2 -x {4.0 10.0 -1 ------- null}
r -t 0.782464 -s 7 -d 1 -p tcp -e 1040 -c 1 -i 20 -a 1 -x {7.0 2.0 5 ------- null}
+ -t 0.782464 -s 1 -d 0 -p tcp -e 1040 -c 1 -i 20 -a 1 -x {7.0 2.0 5 ------- null}
- -t 0.782464 -s 1 -d 0 -p tcp -e 1040 -c 1 -i 19 -a 1 -x {7.0 2.0 4 ------- null}
h -t 0.782464 -s 1 -d 0 -p tcp -e 1040 -c 1 -i 19 -a 1 -x {7.0 2.0 -1 ------- null}
r -t 0.783296 -s 7 -d 1 -p tcp -e 1040 -c 1 -i 21 -a 1 -x {7.0 2.0 6 ------- null}
+ -t 0.783296 -s 1 -d 0 -p tcp -e 1040 -c 1 -i 21 -a 1 -x {7.0 2.0 6 ------- null}
- -t 0.788010666666667 -s 1 -d 0 -p tcp -e 1040 -c 1 -i 20 -a 1 -x {7.0 2.0 5 ------- null}
h -t 0.788010666666667 -s 1 -d 0 -p tcp -e 1040 -c 1 -i 20 -a 1 -x {7.0 2.0 -1 ------- null}
- -t 0.793557333333333 -s 1 -d 0 -p tcp -e 1040 -c 1 -i 21 -a 1 -x {7.0 2.0 6 ------- null}
h -t 0.793557333333333 -s 1 -d 0 -p tcp -e 1040 -c 1 -i 21 -a 1 -x {7.0 2.0 -1 ------- null}
r -t 0.79584 -s 4 -d 0 -p ack -e 40 -c 2 -i 22 -a 2 -x {4.0 10.0 1 ------- null}
+ -t 0.79584 -s 0 -d 1 -p ack -e 40 -c 2 -i 22 -a 2 -x {4.0 10.0 1 ------- null}
- -t 0.79584 -s 0 -d 1 -p ack -e 40 -c 2 -i 22 -a 2 -x {4.0 10.0 1 ------- null}
h -t 0.79584 -s 0 -d 1 -p ack -e 40 -c 2 -i 22 -a 2 -x {4.0 10.0 -1 ------- null}
r -t 0.801386666666667 -s 4 -d 0 -p ack -e 40 -c 2 -i 23 -a 2 -x {4.0 10.0 2 ------- null}
+ -t 0.801386666666667 -s 0 -d 1 -p ack -e 40 -c 2 -i 23 -a 2 -x {4.0 10.0 2 ------- null}
- -t 0.801386666666667 -s 0 -d 1 -p ack -e 40 -c 2 -i 23 -a 2 -x {4.0 10.0 2 ------- null}
h -t 0.801386666666667 -s 0 -d 1 -p ack -e 40 -c 2 -i 23 -a 2 -x {4.0 10.0 -1 ------- null}
r -t 0.822464 -s 1 -d 0 -p tcp -e 1040 -c 1 -i 18 -a 1 -x {7.0 2.0 3 ------- null}
+ -t 0.822464 -s 0 -d 2 -p tcp -e 1040 -c 1 -i 18 -a 1 -x {7.0 2.0 3 ------- null}
- -t 0.822464 -s 0 -d 2 -p tcp -e 1040 -c 1 -i 18 -a 1 -x {7.0 2.0 3 ------- null}
h -t 0.822464 -s 0 -d 2 -p tcp -e 1040 -c 1 -i 18 -a 1 -x {7.0 2.0 -1 ------- null}
r -t 0.828010666666667 -s 1 -d 0 -p tcp -e 1040 -c 1 -i 19 -a 1 -x {7.0 2.0 4 ------- null}
+ -t 0.828010666666667 -s 0 -d 2 -p tcp -e 1040 -c 1 -i 19 -a 1 -x {7.0 2.0 4 ------- null}
- -t 0.828010666666667 -s 0 -d 2 -p tcp -e 1040 -c 1 -i 19 -a 1 -x {7.0 2.0 4 ------- null}
h -t 0.828010666666667 -s 0 -d 2 -p tcp -e 1040 -c 1 -i 19 -a 1 -x {7.0 2.0 -1 ------- null}
r -t 0.833557333333333 -s 1 -d 0 -p tcp -e 1040 -c 1 -i 20 -a 1 -x {7.0 2.0 5 ------- null}
+ -t 0.833557333333333 -s 0 -d 2 -p tcp -e 1040 -c 1 -i 20 -a 1 -x {7.0 2.0 5 ------- null}
- -t 0.833557333333333 -s 0 -d 2 -p tcp -e 1040 -c 1 -i 20 -a 1 -x {7.0 2.0 5 ------- null}
h -t 0.833557333333333 -s 0 -d 2 -p tcp -e 1040 -c 1 -i 20 -a 1 -x {7.0 2.0 -1 ------- null}
r -t 0.836053333333334 -s 0 -d 1 -p ack -e 40 -c 2 -i 22 -a 2 -x {4.0 10.0 1 ------- null}
+ -t 0.836053333333334 -s 1 -d 10 -p ack -e 40 -c 2 -i 22 -a 2 -x {4.0 10.0 1 ------- null}
- -t 0.836053333333334 -s 1 -d 10 -p ack -e 40 -c 2 -i 22 -a 2 -x {4.0 10.0 1 ------- null}
h -t 0.836053333333334 -s 1 -d 10 -p ack -e 40 -c 2 -i 22 -a 2 -x {4.0 10.0 -1 ------- null}
r -t 0.839104 -s 1 -d 0 -p tcp -e 1040 -c 1 -i 21 -a 1 -x {7.0 2.0 6 ------- null}
+ -t 0.839104 -s 0 -d 2 -p tcp -e 1040 -c 1 -i 21 -a 1 -x {7.0 2.0 6 ------- null}
- -t 0.839104 -s 0 -d 2 -p tcp -e 1040 -c 1 -i 21 -a 1 -x {7.0 2.0 6 ------- null}
h -t 0.839104 -s 0 -d 2 -p tcp -e 1040 -c 1 -i 21 -a 1 -x {7.0 2.0 -1 ------- null}
r -t 0.8416 -s 0 -d 1 -p ack -e 40 -c 2 -i 23 -a 2 -x {4.0 10.0 2 ------- null}
+ -t 0.8416 -s 1 -d 10 -p ack -e 40 -c 2 -i 23 -a 2 -x {4.0 10.0 2 ------- null}
- -t 0.8416 -s 1 -d 10 -p ack -e 40 -c 2 -i 23 -a 2 -x {4.0 10.0 2 ------- null}
h -t 0.8416 -s 1 -d 10 -p ack -e 40 -c 2 -i 23 -a 2 -x {4.0 10.0 -1 ------- null}
r -t 0.843296 -s 0 -d 2 -p tcp -e 1040 -c 1 -i 18 -a 1 -x {7.0 2.0 3 ------- null}
+ -t 0.843296 -s 2 -d 0 -p ack -e 40 -c 1 -i 24 -a 1 -x {2.0 7.0 3 ------- null}
- -t 0.843296 -s 2 -d 0 -p ack -e 40 -c 1 -i 24 -a 1 -x {2.0 7.0 3 ------- null}
h -t 0.843296 -s 2 -d 0 -p ack -e 40 -c 1 -i 24 -a 1 -x {2.0 7.0 -1 ------- null}
r -t 0.848842666666667 -s 0 -d 2 -p tcp -e 1040 -c 1 -i 19 -a 1 -x {7.0 2.0 4 ------- null}
+ -t 0.848842666666667 -s 2 -d 0 -p ack -e 40 -c 1 -i 25 -a 1 -x {2.0 7.0 4 ------- null}
- -t 0.848842666666667 -s 2 -d 0 -p ack -e 40 -c 1 -i 25 -a 1 -x {2.0 7.0 4 ------- null}
h -t 0.848842666666667 -s 2 -d 0 -p ack -e 40 -c 1 -i 25 -a 1 -x {2.0 7.0 -1 ------- null}
r -t 0.854389333333333 -s 0 -d 2 -p tcp -e 1040 -c 1 -i 20 -a 1 -x {7.0 2.0 5 ------- null}
+ -t 0.854389333333333 -s 2 -d 0 -p ack -e 40 -c 1 -i 26 -a 1 -x {2.0 7.0 5 ------- null}
- -t 0.854389333333333 -s 2 -d 0 -p ack -e 40 -c 1 -i 26 -a 1 -x {2.0 7.0 5 ------- null}
h -t 0.854389333333333 -s 2 -d 0 -p ack -e 40 -c 1 -i 26 -a 1 -x {2.0 7.0 -1 ------- null}
r -t 0.856085333333334 -s 1 -d 10 -p ack -e 40 -c 2 -i 22 -a 2 -x {4.0 10.0 1 ------- null}
+ -t 0.856085333333334 -s 10 -d 1 -p tcp -e 1040 -c 2 -i 27 -a 2 -x {10.0 4.0 3 ------- null}
- -t 0.856085333333334 -s 10 -d 1 -p tcp -e 1040 -c 2 -i 27 -a 2 -x {10.0 4.0 3 ------- null}
h -t 0.856085333333334 -s 10 -d 1 -p tcp -e 1040 -c 2 -i 27 -a 2 -x {10.0 4.0 -1 ------- null}
+ -t 0.856085333333334 -s 10 -d 1 -p tcp -e 1040 -c 2 -i 28 -a 2 -x {10.0 4.0 4 ------- null}
- -t 0.856917333333334 -s 10 -d 1 -p tcp -e 1040 -c 2 -i 28 -a 2 -x {10.0 4.0 4 ------- null}
h -t 0.856917333333334 -s 10 -d 1 -p tcp -e 1040 -c 2 -i 28 -a 2 -x {10.0 4.0 -1 ------- null}
r -t 0.859936 -s 0 -d 2 -p tcp -e 1040 -c 1 -i 21 -a 1 -x {7.0 2.0 6 ------- null}
+ -t 0.859936 -s 2 -d 0 -p ack -e 40 -c 1 -i 29 -a 1 -x {2.0 7.0 6 ------- null}
- -t 0.859936 -s 2 -d 0 -p ack -e 40 -c 1 -i 29 -a 1 -x {2.0 7.0 6 ------- null}
h -t 0.859936 -s 2 -d 0 -p ack -e 40 -c 1 -i 29 -a 1 -x {2.0 7.0 -1 ------- null}
r -t 0.861632 -s 1 -d 10 -p ack -e 40 -c 2 -i 23 -a 2 -x {4.0 10.0 2 ------- null}
r -t 0.863328 -s 2 -d 0 -p ack -e 40 -c 1 -i 24 -a 1 -x {2.0 7.0 3 ------- null}
+ -t 0.863328 -s 0 -d 1 -p ack -e 40 -c 1 -i 24 -a 1 -x {2.0 7.0 3 ------- null}
- -t 0.863328 -s 0 -d 1 -p ack -e 40 -c 1 -i 24 -a 1 -x {2.0 7.0 3 ------- null}
h -t 0.863328 -s 0 -d 1 -p ack -e 40 -c 1 -i 24 -a 1 -x {2.0 7.0 -1 ------- null}
r -t 0.868874666666667 -s 2 -d 0 -p ack -e 40 -c 1 -i 25 -a 1 -x {2.0 7.0 4 ------- null}
+ -t 0.868874666666667 -s 0 -d 1 -p ack -e 40 -c 1 -i 25 -a 1 -x {2.0 7.0 4 ------- null}
- -t 0.868874666666667 -s 0 -d 1 -p ack -e 40 -c 1 -i 25 -a 1 -x {2.0 7.0 4 ------- null}
h -t 0.868874666666667 -s 0 -d 1 -p ack -e 40 -c 1 -i 25 -a 1 -x {2.0 7.0 -1 ------- null}
r -t 0.874421333333333 -s 2 -d 0 -p ack -e 40 -c 1 -i 26 -a 1 -x {2.0 7.0 5 ------- null}
+ -t 0.874421333333333 -s 0 -d 1 -p ack -e 40 -c 1 -i 26 -a 1 -x {2.0 7.0 5 ------- null}
- -t 0.874421333333333 -s 0 -d 1 -p ack -e 40 -c 1 -i 26 -a 1 -x {2.0 7.0 5 ------- null}